 Entering Gaussian System, Link 0=g16
 Input=N+1.gjf
 Output=N+1.log
 Initial command:
 /home/zengyun1/App/g16/l1.exe "/home/zengyun1/App/g16/scratch/Gau-14885.inp" -scrdir="/home/zengyun1/App/g16/scratch/"
 Default is to use a total of  15 processors:
                               15 via shared-memory
                                1 via Linda
 Entering Link 1 = /home/zengyun1/App/g16/l1.exe PID=     14887.
  
 Copyright (c) 1988-2019, Gaussian, Inc.  All Rights Reserved.
  
 This is part of the Gaussian(R) 16 program.  It is based on
 the Gaussian(R) 09 system (copyright 2009, Gaussian, Inc.),
 the Gaussian(R) 03 system (copyright 2003, Gaussian, Inc.),
 the Gaussian(R) 98 system (copyright 1998, Gaussian, Inc.),
 the Gaussian(R) 94 system (copyright 1995, Gaussian, Inc.),
 the Gaussian 92(TM) system (copyright 1992, Gaussian, Inc.),
 the Gaussian 90(TM) system (copyright 1990, Gaussian, Inc.),
 the Gaussian 88(TM) system (copyright 1988, Gaussian, Inc.),
 the Gaussian 86(TM) system (copyright 1986, Carnegie Mellon
 University), and the Gaussian 82(TM) system (copyright 1983,
 Carnegie Mellon University). Gaussian is a federally registered
 trademark of Gaussian, Inc.
  
 This software contains proprietary and confidential information,
 including trade secrets, belonging to Gaussian, Inc.
  
 This software is provided under written license and may be
 used, copied, transmitted, or stored only in accord with that
 written license.
  
 The following legend is applicable only to US Government
 contracts under FAR:
  
                    RESTRICTED RIGHTS LEGEND
  
 Use, reproduction and disclosure by the US Government is
 subject to restrictions as set forth in subparagraphs (a)
 and (c) of the Commercial Computer Software - Restricted
 Rights clause in FAR 52.227-19.
  
 Gaussian, Inc.
 340 Quinnipiac St., Bldg. 40, Wallingford CT 06492
  
  
 ---------------------------------------------------------------
 Warning -- This program may not be used in any manner that
 competes with the business of Gaussian, Inc. or will provide
 assistance to any competitor of Gaussian, Inc.  The licensee
 of this program is prohibited from giving any competitor of
 Gaussian, Inc. access to this program.  By using this program,
 the user acknowledges that Gaussian, Inc. is engaged in the
 business of creating and licensing software in the field of
 computational chemistry and represents and warrants to the
 licensee that it is not a competitor of Gaussian, Inc. and that
 it will not use this program in any manner prohibited above.
 ---------------------------------------------------------------
  

 Cite this work as:
 Gaussian 16, Revision C.01,
 M. J. Frisch, G. W. Trucks, H. B. Schlegel, G. E. Scuseria, 
 M. A. Robb, J. R. Cheeseman, G. Scalmani, V. Barone, 
 G. A. Petersson, H. Nakatsuji, X. Li, M. Caricato, A. V. Marenich, 
 J. Bloino, B. G. Janesko, R. Gomperts, B. Mennucci, H. P. Hratchian, 
 J. V. Ortiz, A. F. Izmaylov, J. L. Sonnenberg, D. Williams-Young, 
 F. Ding, F. Lipparini, F. Egidi, J. Goings, B. Peng, A. Petrone, 
 T. Henderson, D. Ranasinghe, V. G. Zakrzewski, J. Gao, N. Rega, 
 G. Zheng, W. Liang, M. Hada, M. Ehara, K. Toyota, R. Fukuda, 
 J. Hasegawa, M. Ishida, T. Nakajima, Y. Honda, O. Kitao, H. Nakai, 
 T. Vreven, K. Throssell, J. A. Montgomery, Jr., J. E. Peralta, 
 F. Ogliaro, M. J. Bearpark, J. J. Heyd, E. N. Brothers, K. N. Kudin, 
 V. N. Staroverov, T. A. Keith, R. Kobayashi, J. Normand, 
 K. Raghavachari, A. P. Rendell, J. C. Burant, S. S. Iyengar, 
 J. Tomasi, M. Cossi, J. M. Millam, M. Klene, C. Adamo, R. Cammi, 
 J. W. Ochterski, R. L. Martin, K. Morokuma, O. Farkas, 
 J. B. Foresman, and D. J. Fox, Gaussian, Inc., Wallingford CT, 2019.
 
 ******************************************
 Gaussian 16:  ES64L-G16RevC.01  3-Jul-2019
                17-Oct-2024 
 ******************************************
 %chk=N+1.chk
 ------------------------------
 #P B3LYP/6-31G* em=gd3 out=wfn
 ------------------------------
 1/38=1,172=1/1;
 2/12=2,17=6,18=5,40=1/2;
 3/5=1,6=6,7=1,11=2,25=1,30=1,74=-5,124=31/1,2,3;
 4//1;
 5/5=2,38=5/2;
 6/7=2,8=2,9=2,10=2,28=1/1;
 99/5=1,6=100,9=1/99;
 Leave Link    1 at Thu Oct 17 10:20:28 2024, MaxMem=           0 cpu:               0.4 elap:               0.0
 (Enter /home/zengyun1/App/g16/l101.exe)
 -------------------
 Title Card Required
 -------------------
 Symbolic Z-matrix:
 Charge = -1 Multiplicity = 2
 C                    -1.07535  -2.12639  -0.00102 
 C                    -0.04815  -1.46874  -0.00171 
 C                     1.11754  -0.68058   0.00687 
 C                     1.12696   0.68058  -0.00463 
 C                    -0.04951   1.46884  -0.00313 
 C                    -1.07149   2.12629   0.00363 
 N                    -2.23518  -2.78601  -0.02964 
 H                     2.07227  -1.20446   0.01878 
 H                     2.0854    1.19516  -0.01388 
 C                    -2.33172   2.87434   0.0377 
 C                    -2.34617  -4.09975   0.65114 
 C                    -3.48144  -1.98784   0.08127 
 C                    -3.52945   1.93457  -0.21649 
 H                    -2.31363   3.62181  -0.77028 
 C                    -2.49557   3.62972   1.37336 
 C                    -3.6968   -4.12022   1.37984 
 H                    -2.3055   -4.91177  -0.08411 
 H                    -1.52148  -4.22607   1.36235 
 C                    -4.62634  -2.87418  -0.4148 
 C                    -3.71317  -1.61637   1.55498 
 H                    -3.37673  -1.10568  -0.55405 
 H                    -3.42246   1.4108   -1.172 
 H                    -4.4662    2.50398  -0.23504 
 H                    -3.59715   1.18472   0.57976 
 H                    -1.65758   4.31237   1.54607 
 H                    -3.42448   4.21226   1.36859 
 H                    -2.53458   2.92222   2.20919 
 O                    -4.75794  -4.03618   0.42096 
 C                    -3.79985  -2.94359   2.36472 
 H                    -3.8303   -5.08031   1.88619 
 H                    -5.57128  -2.31596  -0.38618 
 H                    -4.4399   -3.19288  -1.44875 
 H                    -4.63354  -1.02855   1.6489 
 H                    -2.8844   -0.98715   1.89647 
 H                    -2.9984   -3.0111    3.11052 
 H                    -4.752    -3.02032   2.89714 
 
 ITRead=  0  0  0  0  0  0  0  0  0  0  0  0  0  0  0  0  0  0  0  0
 ITRead=  0  0  0  0  0  0  0  0  0  0  0  0  0  0  0  0
 MicOpt= -1 -1 -1 -1 -1 -1 -1 -1 -1 -1 -1 -1 -1 -1 -1 -1 -1 -1 -1 -1
 MicOpt= -1 -1 -1 -1 -1 -1 -1 -1 -1 -1 -1 -1 -1 -1 -1 -1
 NAtoms=     36 NQM=       36 NQMF=       0 NMMI=      0 NMMIF=      0
                NMic=       0 NMicF=      0.
                    Isotopes and Nuclear Properties:
 (Nuclear quadrupole moments (NQMom) in fm**2, nuclear magnetic moments (NMagM)
  in nuclear magnetons)

  Atom         1           2           3           4           5           6           7           8           9          10
 IAtWgt=          12          12          12          12          12          12          14           1           1          12
 AtmWgt=  12.0000000  12.0000000  12.0000000  12.0000000  12.0000000  12.0000000  14.0030740   1.0078250   1.0078250  12.0000000
 NucSpn=           0           0           0           0           0           0           2           1           1           0
 AtZEff=  -0.0000000  -0.0000000  -0.0000000  -0.0000000  -0.0000000  -0.0000000  -0.0000000  -0.0000000  -0.0000000  -0.0000000
 NQMom=    0.0000000   0.0000000   0.0000000   0.0000000   0.0000000   0.0000000   2.0440000   0.0000000   0.0000000   0.0000000
 NMagM=    0.0000000   0.0000000   0.0000000   0.0000000   0.0000000   0.0000000   0.4037610   2.7928460   2.7928460   0.0000000
 AtZNuc=   6.0000000   6.0000000   6.0000000   6.0000000   6.0000000   6.0000000   7.0000000   1.0000000   1.0000000   6.0000000

  Atom        11          12          13          14          15          16          17          18          19          20
 IAtWgt=          12          12          12           1          12          12           1           1          12          12
 AtmWgt=  12.0000000  12.0000000  12.0000000   1.0078250  12.0000000  12.0000000   1.0078250   1.0078250  12.0000000  12.0000000
 NucSpn=           0           0           0           1           0           0           1           1           0           0
 AtZEff=  -0.0000000  -0.0000000  -0.0000000  -0.0000000  -0.0000000  -0.0000000  -0.0000000  -0.0000000  -0.0000000  -0.0000000
 NQMom=    0.0000000   0.0000000   0.0000000   0.0000000   0.0000000   0.0000000   0.0000000   0.0000000   0.0000000   0.0000000
 NMagM=    0.0000000   0.0000000   0.0000000   2.7928460   0.0000000   0.0000000   2.7928460   2.7928460   0.0000000   0.0000000
 AtZNuc=   6.0000000   6.0000000   6.0000000   1.0000000   6.0000000   6.0000000   1.0000000   1.0000000   6.0000000   6.0000000

  Atom        21          22          23          24          25          26          27          28          29          30
 IAtWgt=           1           1           1           1           1           1           1          16          12           1
 AtmWgt=   1.0078250   1.0078250   1.0078250   1.0078250   1.0078250   1.0078250   1.0078250  15.9949146  12.0000000   1.0078250
 NucSpn=           1           1           1           1           1           1           1           0           0           1
 AtZEff=  -0.0000000  -0.0000000  -0.0000000  -0.0000000  -0.0000000  -0.0000000  -0.0000000  -0.0000000  -0.0000000  -0.0000000
 NQMom=    0.0000000   0.0000000   0.0000000   0.0000000   0.0000000   0.0000000   0.0000000   0.0000000   0.0000000   0.0000000
 NMagM=    2.7928460   2.7928460   2.7928460   2.7928460   2.7928460   2.7928460   2.7928460   0.0000000   0.0000000   2.7928460
 AtZNuc=   1.0000000   1.0000000   1.0000000   1.0000000   1.0000000   1.0000000   1.0000000   8.0000000   6.0000000   1.0000000

  Atom        31          32          33          34          35          36
 IAtWgt=           1           1           1           1           1           1
 AtmWgt=   1.0078250   1.0078250   1.0078250   1.0078250   1.0078250   1.0078250
 NucSpn=           1           1           1           1           1           1
 AtZEff=  -0.0000000  -0.0000000  -0.0000000  -0.0000000  -0.0000000  -0.0000000
 NQMom=    0.0000000   0.0000000   0.0000000   0.0000000   0.0000000   0.0000000
 NMagM=    2.7928460   2.7928460   2.7928460   2.7928460   2.7928460   2.7928460
 AtZNuc=   1.0000000   1.0000000   1.0000000   1.0000000   1.0000000   1.0000000
 Leave Link  101 at Thu Oct 17 10:20:28 2024, MaxMem=  6710886400 cpu:               1.8 elap:               0.1
 (Enter /home/zengyun1/App/g16/l202.exe)
                          Input orientation:                          
 ---------------------------------------------------------------------
 Center     Atomic      Atomic             Coordinates (Angstroms)
 Number     Number       Type             X           Y           Z
 ---------------------------------------------------------------------
      1          6           0       -1.075347   -2.126391   -0.001024
      2          6           0       -0.048150   -1.468735   -0.001710
      3          6           0        1.117540   -0.680582    0.006873
      4          6           0        1.126959    0.680582   -0.004631
      5          6           0       -0.049512    1.468836   -0.003133
      6          6           0       -1.071490    2.126289    0.003625
      7          7           0       -2.235179   -2.786008   -0.029637
      8          1           0        2.072268   -1.204463    0.018781
      9          1           0        2.085399    1.195164   -0.013883
     10          6           0       -2.331724    2.874339    0.037702
     11          6           0       -2.346174   -4.099746    0.651142
     12          6           0       -3.481441   -1.987844    0.081272
     13          6           0       -3.529451    1.934568   -0.216492
     14          1           0       -2.313628    3.621811   -0.770276
     15          6           0       -2.495565    3.629719    1.373358
     16          6           0       -3.696799   -4.120221    1.379838
     17          1           0       -2.305496   -4.911773   -0.084114
     18          1           0       -1.521478   -4.226075    1.362345
     19          6           0       -4.626342   -2.874175   -0.414804
     20          6           0       -3.713167   -1.616369    1.554982
     21          1           0       -3.376727   -1.105676   -0.554050
     22          1           0       -3.422462    1.410800   -1.171998
     23          1           0       -4.466198    2.503975   -0.235041
     24          1           0       -3.597152    1.184718    0.579759
     25          1           0       -1.657577    4.312373    1.546073
     26          1           0       -3.424481    4.212260    1.368585
     27          1           0       -2.534579    2.922218    2.209189
     28          8           0       -4.757941   -4.036183    0.420962
     29          6           0       -3.799848   -2.943586    2.364717
     30          1           0       -3.830297   -5.080308    1.886194
     31          1           0       -5.571278   -2.315957   -0.386179
     32          1           0       -4.439901   -3.192885   -1.448752
     33          1           0       -4.633538   -1.028548    1.648903
     34          1           0       -2.884402   -0.987149    1.896465
     35          1           0       -2.998402   -3.011104    3.110525
     36          1           0       -4.751997   -3.020320    2.897135
 ---------------------------------------------------------------------
                    Distance matrix (angstroms):
                    1          2          3          4          5
     1  C    0.000000
     2  C    1.219691   0.000000
     3  C    2.626629   1.407157   0.000000
     4  C    3.567809   2.449582   1.361245   0.000000
     5  C    3.738716   2.937572   2.445835   1.416132   0.000000
     6  C    4.252684   3.737840   3.559549   2.631219   1.215207
     7  N    1.334587   2.553250   3.959151   4.829269   4.783465
     8  H    3.279912   2.136921   1.089082   2.108922   3.413057
     9  H    4.585107   3.412995   2.110830   1.087882   2.152407
    10  C    5.156286   4.906990   4.953366   4.095955   2.680597
    11  C    2.436073   3.553780   4.909489   5.945101   6.059029
    12  C    2.411484   3.473305   4.781746   5.325902   4.871745
    13  C    4.749783   4.873198   5.336987   4.826958   3.517443
    14  H    5.930170   5.624655   5.557649   4.590717   3.217146
    15  C    6.085947   5.820214   5.787962   4.870210   3.542219
    16  C    3.571295   4.717170   6.074044   6.945006   6.815634
    17  H    3.046067   4.117877   5.443200   6.562202   6.768175
    18  H    2.542928   3.410904   4.623012   5.740917   6.038479
    19  C    3.652391   4.806844   6.162941   6.775324   6.322863
    20  C    3.104734   3.984650   5.158301   5.579892   5.036723
    21  H    2.577605   3.393570   4.549041   4.876040   4.242874
    22  H    4.403618   4.587731   5.135682   4.753230   3.570211
    23  H    5.743947   5.946093   6.432578   5.887381   4.542291
    24  H    4.202410   4.469266   5.102535   4.786741   3.606416
    25  H    6.647570   6.197346   5.916081   4.832001   3.615469
    26  H    6.897301   6.749150   6.813525   5.922337   4.560526
    27  H    5.701127   5.509163   5.582861   4.830403   3.630736
    28  O    4.169757   5.380759   6.778850   7.553876   7.256335
    29  C    3.699655   4.674441   5.904348   6.559103   6.256293
    30  H    4.458359   5.559881   6.882625   7.831824   7.794561
    31  H    4.516379   5.600941   6.897045   7.347871   6.705317
    32  H    3.814911   4.934987   6.270220   6.933914   6.564828
    33  H    4.072867   4.893268   5.991013   6.232064   5.475349
    34  H    2.858499   3.446639   4.436224   4.741994   4.204395
    35  H    3.763322   4.557290   5.657293   6.352271   6.201668
    36  H    4.766150   5.739067   6.948342   7.528549   7.118809
                    6          7          8          9         10
     6  C    0.000000
     7  N    5.048360   0.000000
     8  H    4.580104   4.588870   0.000000
     9  H    3.291390   5.875149   2.399885   0.000000
    10  C    1.465923   5.661571   6.002677   4.725808   0.000000
    11  C    6.388083   1.483808   5.320261   6.936654   7.001027
    12  C    4.768646   1.484094   5.609035   6.413291   4.996456
    13  C    2.475233   4.898356   6.425584   5.666949   1.543481
    14  H    2.092466   6.450957   6.568989   5.080569   1.100850
    15  C    2.482833   6.572499   6.787436   5.369984   1.543185
    16  C    6.914123   2.429625   6.605774   7.976816   7.251802
    17  H    7.145963   2.127625   5.737556   7.521939   7.787109
    18  H    6.511616   2.126212   4.883678   6.655329   7.268222
    19  C    6.149528   2.423590   6.917175   7.859245   6.206081
    20  C    4.836595   2.462422   6.000070   6.632452   4.937305
    21  H    4.008830   2.098013   5.479912   5.951510   4.157249
    22  H    2.724167   4.508639   6.200775   5.632429   2.189756
    23  H    3.423982   5.744872   7.521202   6.684708   2.183469
    24  H    2.756348   4.241816   6.177799   5.713485   2.179439
    25  H    2.738906   7.294073   6.832265   5.114716   2.190342
    26  H    3.427967   7.235000   7.834354   6.432174   2.180688
    27  H    2.763810   6.138878   6.561282   5.410080   2.181467
    28  O    7.193063   2.851369   7.404873   8.624812   7.334080
    29  C    6.222727   2.864603   6.558179   7.577805   6.435731
    30  H    7.942929   3.388012   7.304086   8.831042   8.302954
    31  H    6.335108   3.387865   7.734546   8.431564   6.132989
    32  H    6.461362   2.653344   6.965330   7.993332   6.592811
    33  H    5.034692   3.414424   6.903338   7.270066   4.809038
    34  H    4.069765   2.714268   5.304856   5.754202   4.321058
    35  H    6.305444   3.239413   6.207618   7.300661   6.672716
    36  H    6.957450   3.867204   7.625802   8.543671   6.984346
                   11         12         13         14         15
    11  C    0.000000
    12  C    2.464490   0.000000
    13  C    6.210143   3.933991   0.000000
    14  H    7.851365   5.792853   2.152136   0.000000
    15  C    7.764570   5.847944   2.543635   2.151355   0.000000
    16  C    1.534798   2.505930   6.263924   8.153233   7.842485
    17  H    1.096195   3.155877   6.956147   8.561130   8.667032
    18  H    1.096308   3.239179   6.669198   8.170978   7.915963
    19  C    2.799541   1.530514   4.936244   6.904552   7.073781
    20  C    2.975358   1.537372   3.972534   5.899497   5.388597
    21  H    3.388065   1.092163   3.062736   4.850368   5.187997
    22  H    5.903249   3.622837   1.094884   2.505886   3.501653
    23  H    6.992064   4.609364   1.096386   2.483866   2.781662
    24  H    5.430985   3.213569   1.095844   3.067483   2.796663
    25  H    8.487568   6.720480   3.502071   2.504546   1.094564
    26  H    8.412307   6.332591   2.776935   2.481401   1.096477
    27  H    7.195206   5.434454   2.801634   3.068462   1.095761
    28  O    2.423560   2.437321   6.129062   8.126413   8.049314
    29  C    2.527096   2.495786   5.525590   7.425730   6.774385
    30  H    2.165520   3.597607   7.329412   9.224098   8.826612
    31  H    3.828738   2.166469   4.718561   6.783576   6.921491
    32  H    3.100910   2.170655   5.351463   7.170875   7.634964
    33  H    3.957249   2.169111   3.671343   5.732386   5.132865
    34  H    3.395406   2.157028   3.662937   5.355353   4.662650
    35  H    2.767509   3.233692   5.984206   7.715251   6.882668
    36  H    3.463759   3.257208   5.978311   7.969533   7.185847
                   16         17         18         19         20
    16  C    0.000000
    17  H    2.169201   0.000000
    18  H    2.177965   1.782445   0.000000
    19  C    2.374325   3.106041   3.824405   0.000000
    20  C    2.510024   3.940541   3.413382   2.509187   0.000000
    21  H    3.595810   3.981802   4.105047   2.169911   2.195909
    22  H    6.097485   6.511992   6.466142   4.514829   4.084689
    23  H    6.861471   7.725589   7.517752   5.383536   4.555049
    24  H    5.365858   6.267081   5.847867   4.303835   2.968267
    25  H    8.677252   9.389472   8.541509   8.019045   6.274991
    26  H    8.336937   9.306473   8.650258   7.405573   5.838750
    27  H    7.185717   8.165974   7.269224   6.697685   4.734536
    28  O    1.432665   2.652592   3.375937   1.437388   2.869330
    29  C    1.537880   3.479026   2.800089   2.900629   1.557141
    30  H    1.093611   2.497105   2.516898   3.285621   3.481709
    31  H    3.144496   4.182683   4.806950   1.097876   2.776708
    32  H    3.068073   3.061453   4.181739   1.097900   3.469289
    33  H    3.241654   4.847944   4.471153   2.768624   1.096101
    34  H    3.277657   4.434016   3.554362   3.455023   1.095162
    35  H    2.170985   3.781320   2.591060   3.885471   2.208141
    36  H    2.150678   4.295440   3.774345   3.317542   2.202640
                   21         22         23         24         25
    21  H    0.000000
    22  H    2.591641   0.000000
    23  H    3.783952   1.778287   0.000000
    24  H    2.565154   1.774903   1.777520   0.000000
    25  H    6.059806   4.349926   3.785634   3.804989   0.000000
    26  H    5.655020   3.781897   2.564182   3.133380   1.778616
    27  H    4.956676   3.808562   3.143301   2.608258   1.772396
    28  O    3.383234   5.830150   6.579447   5.350743   8.976442
    29  C    3.475075   5.622406   6.072782   4.502228   7.609760
    30  H    4.685959   7.187027   7.900972   6.404036   9.646702
    31  H    2.511775   4.373058   4.947301   4.133393   7.936335
    32  H    2.507443   4.722890   5.824775   4.897805   8.546298
    33  H    2.537425   3.921047   4.006990   2.667529   6.114929
    34  H    2.502290   3.931302   4.385584   2.637941   5.450946
    35  H    4.147637   6.170338   6.615386   4.936416   7.607801
    36  H    4.179463   6.161196   6.356889   4.938243   8.072744
                   26         27         28         29         30
    26  H    0.000000
    27  H    1.778412   0.000000
    28  O    8.409097   7.520667   0.000000
    29  C    7.234591   6.002729   2.426910   0.000000
    30  H    9.315816   8.113177   2.024259   2.189861   0.000000
    31  H    7.092641   6.587560   2.066923   3.331563   3.979489
    32  H    7.987781   7.375993   2.075604   3.874837   3.880187
    33  H    5.385765   4.508670   3.251028   2.207895   4.137422
    34  H    5.253970   3.937426   3.870900   2.210192   4.201044
    35  H    7.442640   6.019290   3.373502   1.096861   2.544139
    36  H    7.510591   6.379966   2.676461   1.093593   2.472869
                   31         32         33         34         35
    31  H    0.000000
    32  H    1.782716   0.000000
    33  H    2.584248   3.783823   0.000000
    34  H    3.767691   4.298293   1.767053   0.000000
    35  H    4.396574   4.785182   2.956440   2.362907   0.000000
    36  H    3.456516   4.360495   2.353566   2.936501   1.766555
                   36
    36  H    0.000000
 Stoichiometry    C15H19NO(1-,2)
 Framework group  C1[X(C15H19NO)]
 Deg. of freedom   102
 Full point group                 C1      NOp   1
 Largest Abelian subgroup         C1      NOp   1
 Largest concise Abelian subgroup C1      NOp   1
                         Standard orientation:                         
 ---------------------------------------------------------------------
 Center     Atomic      Atomic             Coordinates (Angstroms)
 Number     Number       Type             X           Y           Z
 ---------------------------------------------------------------------
      1          6           0        0.560458    1.669077   -0.293302
      2          6           0       -0.448431    2.332702   -0.121866
      3          6           0       -1.630839    3.067638    0.082759
      4          6           0       -2.880182    2.527415    0.099784
      5          6           0       -3.134188    1.144072   -0.065366
      6          6           0       -3.329447   -0.047309   -0.203980
      7          7           0        1.621394    0.890157   -0.514262
      8          1           0       -1.529543    4.141675    0.232036
      9          1           0       -3.731656    3.187816    0.249280
     10          6           0       -3.510841   -1.494546   -0.350721
     11          6           0        2.921550    1.229760    0.114984
     12          6           0        1.394818   -0.574977   -0.581957
     13          6           0       -2.196858   -2.164314   -0.805906
     14          1           0       -4.266582   -1.672259   -1.131197
     15          6           0       -4.029042   -2.126866    0.958118
     16          6           0        3.534698   -0.081498    0.625137
     17          1           0        3.588749    1.693217   -0.621017
     18          1           0        2.767202    1.931866    0.942702
     19          6           0        2.619504   -1.186191   -1.266818
     20          6           0        1.265713   -1.131986    0.845132
     21          1           0        0.495451   -0.751872   -1.175814
     22          1           0       -1.837288   -1.727928   -1.743481
     23          1           0       -2.347452   -3.239598   -0.958056
     24          1           0       -1.420210   -2.028953   -0.044743
     25          1           0       -4.971774   -1.667742    1.272017
     26          1           0       -4.193643   -3.202217    0.821048
     27          1           0       -3.299311   -1.987965    1.763657
     28          8           0        3.801567   -0.947307   -0.484676
     29          6           0        2.578934   -0.782187    1.605251
     30          1           0        4.506350    0.118108    1.085610
     31          1           0        2.486189   -2.270672   -1.373862
     32          1           0        2.753732   -0.750323   -2.265510
     33          1           0        1.100841   -2.214944    0.806973
     34          1           0        0.389089   -0.682184    1.323243
     35          1           0        2.382816   -0.129523    2.464712
     36          1           0        3.069659   -1.683900    1.982141
 ---------------------------------------------------------------------
 Rotational constants (GHZ):           0.6780905           0.2780465           0.2197571
 Leave Link  202 at Thu Oct 17 10:20:28 2024, MaxMem=  6710886400 cpu:               0.0 elap:               0.0
 (Enter /home/zengyun1/App/g16/l301.exe)
 Standard basis: 6-31G(d) (6D, 7F)
 Ernie: Thresh=  0.10000D-02 Tol=  0.10000D-05 Strict=F.
 There are   293 symmetry adapted cartesian basis functions of A   symmetry.
 There are   293 symmetry adapted basis functions of A   symmetry.
   293 basis functions,   552 primitive gaussians,   293 cartesian basis functions
    63 alpha electrons       62 beta electrons
       nuclear repulsion energy      1158.9140717127 Hartrees.
 IExCor=  402 DFT=T Ex+Corr=B3LYP ExCW=0 ScaHFX=  0.200000
 ScaDFX=  0.800000  0.720000  1.000000  0.810000 ScalE2=  1.000000  1.000000
 IRadAn=      5 IRanWt=     -1 IRanGd=            0 ICorTp=0 IEmpDi=131
 NAtoms=   36 NActive=   36 NUniq=   36 SFac= 1.00D+00 NAtFMM=   60 NAOKFM=F Big=F
 Integral buffers will be    131072 words long.
 Raffenetti 2 integral format.
 Two-electron integral symmetry is turned on.
 R6Disp:  Grimme-D3 Dispersion energy=       -0.0335511031 Hartrees.
 Nuclear repulsion after empirical dispersion term =     1158.8805206097 Hartrees.
 Leave Link  301 at Thu Oct 17 10:20:28 2024, MaxMem=  6710886400 cpu:               0.3 elap:               0.0
 (Enter /home/zengyun1/App/g16/l302.exe)
 NPDir=0 NMtPBC=     1 NCelOv=     1 NCel=       1 NClECP=     1 NCelD=      1
         NCelK=      1 NCelE2=     1 NClLst=     1 CellRange=     0.0.
 One-electron integrals computed using PRISM.
 One-electron integral symmetry used in STVInt
 NBasis=   293 RedAO= T EigKep=  1.11D-04  NBF=   293
 NBsUse=   293 1.00D-06 EigRej= -1.00D+00 NBFU=   293
 Precomputing XC quadrature grid using
 IXCGrd= 4 IRadAn=           5 IRanWt=          -1 IRanGd=           0 AccXCQ= 0.00D+00.
 Generated NRdTot=       0 NPtTot=           0 NUsed=           0 NTot=          32
 NSgBfM=   293   293   293   293   293 MxSgAt=    36 MxSgA2=    36.
 Leave Link  302 at Thu Oct 17 10:20:28 2024, MaxMem=  6710886400 cpu:               4.3 elap:               0.3
 (Enter /home/zengyun1/App/g16/l303.exe)
 DipDrv:  MaxL=1.
 Leave Link  303 at Thu Oct 17 10:20:28 2024, MaxMem=  6710886400 cpu:               0.4 elap:               0.0
 (Enter /home/zengyun1/App/g16/l401.exe)
 ExpMin= 1.61D-01 ExpMax= 5.48D+03 ExpMxC= 8.25D+02 IAcc=3 IRadAn=         5 AccDes= 0.00D+00
 Harris functional with IExCor=  402 and IRadAn=       5 diagonalized for initial guess.
 HarFok:  IExCor=  402 AccDes= 0.00D+00 IRadAn=         5 IDoV= 1 UseB2=F ITyADJ=14
 ICtDFT=  3500011 ScaDFX=  1.000000  1.000000  1.000000  1.000000
 FoFCou: FMM=F IPFlag=           0 FMFlag=      100000 FMFlg1=           0
         NFxFlg=           0 DoJE=T BraDBF=F KetDBF=T FulRan=T
         wScrn=  0.000000 ICntrl=       500 IOpCl=  0 I1Cent=   200000004 NGrid=           0
         NMat0=    1 NMatS0=      1 NMatT0=    0 NMatD0=    1 NMtDS0=    0 NMtDT0=    0
 Petite list used in FoFCou.
 Harris En= -713.123065616663    
 JPrj=0 DoOrth=F DoCkMO=F.
 Initial guess <Sx>= 0.0000 <Sy>= 0.0000 <Sz>= 0.5000 <S**2>= 0.7500 S= 0.5000
 Leave Link  401 at Thu Oct 17 10:20:30 2024, MaxMem=  6710886400 cpu:              21.3 elap:               1.4
 (Enter /home/zengyun1/App/g16/l502.exe)
 Integral symmetry usage will be decided dynamically.
 UHF open shell SCF:
 Using DIIS extrapolation, IDIIS=  1040.
 NGot=  6710886400 LenX=  6710706040 LenY=  6710619750
 Requested convergence on RMS density matrix=1.00D-08 within 128 cycles.
 Requested convergence on MAX density matrix=1.00D-06.
 Requested convergence on             energy=1.00D-06.
 No special actions if energy rises.
 Fock matrices will be formed incrementally for  20 cycles.
 Integral accuracy reduced to 1.0D-05 until final iterations.

 Cycle   1  Pass 0  IDiag  1:
 FoFJK:  IHMeth= 1 ICntrl=       0 DoSepK=F KAlg= 0 I1Cent=           0 FoldK=F
 IRaf= 820000000 NMat=       1 IRICut=       1 DoRegI=T DoRafI=F ISym2E= 0 IDoP0=0 IntGTp=1.
 FoFCou: FMM=F IPFlag=           0 FMFlag=      100000 FMFlg1=           0
         NFxFlg=           0 DoJE=F BraDBF=F KetDBF=F FulRan=T
         wScrn=  0.000000 ICntrl=         0 IOpCl=  1 I1Cent=           0 NGrid=           0
         NMat0=    1 NMatS0=      1 NMatT0=    0 NMatD0=    1 NMtDS0=    0 NMtDT0=    0
 Symmetry not used in FoFCou.
 E= -712.265255415223    
 DIIS: error= 3.16D-02 at cycle   1 NSaved=   1.
 NSaved= 1 IEnMin= 1 EnMin= -712.265255415223     IErMin= 1 ErrMin= 3.16D-02
 ErrMax= 3.16D-02  0.00D+00 EMaxC= 1.00D-01 BMatC= 2.01D+00 BMatP= 2.01D+00
 IDIUse=3 WtCom= 6.84D-01 WtEn= 3.16D-01
 Coeff-Com:  0.100D+01
 Coeff-En:   0.100D+01
 Coeff:      0.100D+01
 Gap=     0.097 Goal=   None    Shift=    0.000
 Gap=     0.240 Goal=   None    Shift=    0.000
 GapD=    0.097 DampG=0.500 DampE=0.500 DampFc=0.2500 IDamp=-1.
 Damping current iteration by 2.50D-01
 RMSDP=2.10D-02 MaxDP=1.06D+00              OVMax= 9.92D-01

 Cycle   2  Pass 0  IDiag  1:
 RMSU=  5.23D-03    CP:  9.84D-01
 E= -712.465409864514     Delta-E=       -0.200154449291 Rises=F Damp=T
 DIIS: error= 1.55D-02 at cycle   2 NSaved=   2.
 NSaved= 2 IEnMin= 2 EnMin= -712.465409864514     IErMin= 2 ErrMin= 1.55D-02
 ErrMax= 1.55D-02  0.00D+00 EMaxC= 1.00D-01 BMatC= 5.14D-01 BMatP= 2.01D+00
 IDIUse=3 WtCom= 8.45D-01 WtEn= 1.55D-01
 Coeff-Com: -0.753D+00 0.175D+01
 Coeff-En:   0.000D+00 0.100D+01
 Coeff:     -0.637D+00 0.164D+01
 Gap=     0.050 Goal=   None    Shift=    0.000
 Gap=     0.258 Goal=   None    Shift=    0.000
 RMSDP=6.44D-03 MaxDP=2.31D-01 DE=-2.00D-01 OVMax= 9.37D-01

 Cycle   3  Pass 0  IDiag  1:
 RMSU=  4.58D-03    CP:  9.07D-01  1.93D-01
 E= -712.697332703299     Delta-E=       -0.231922838786 Rises=F Damp=F
 DIIS: error= 2.23D-02 at cycle   3 NSaved=   3.
 NSaved= 3 IEnMin= 3 EnMin= -712.697332703299     IErMin= 2 ErrMin= 1.55D-02
 ErrMax= 2.23D-02  0.00D+00 EMaxC= 1.00D-01 BMatC= 4.97D-01 BMatP= 5.14D-01
 IDIUse=3 WtCom= 7.77D-01 WtEn= 2.23D-01
 Coeff-Com: -0.569D+00 0.121D+01 0.362D+00
 Coeff-En:   0.000D+00 0.000D+00 0.100D+01
 Coeff:     -0.442D+00 0.937D+00 0.504D+00
 Gap=     0.088 Goal=   None    Shift=    0.000
 Gap=     0.187 Goal=   None    Shift=    0.000
 RMSDP=2.75D-03 MaxDP=1.22D-01 DE=-2.32D-01 OVMax= 2.08D-01

 Cycle   4  Pass 0  IDiag  1:
 RMSU=  2.36D-03    CP:  9.33D-01  2.17D-01  7.20D-01
 E= -712.784412149444     Delta-E=       -0.087079446145 Rises=F Damp=F
 DIIS: error= 1.36D-02 at cycle   4 NSaved=   4.
 NSaved= 4 IEnMin= 4 EnMin= -712.784412149444     IErMin= 4 ErrMin= 1.36D-02
 ErrMax= 1.36D-02  0.00D+00 EMaxC= 1.00D-01 BMatC= 2.46D-01 BMatP= 4.97D-01
 IDIUse=3 WtCom= 8.64D-01 WtEn= 1.36D-01
 Coeff-Com: -0.203D+00 0.414D+00 0.377D+00 0.411D+00
 Coeff-En:   0.000D+00 0.000D+00 0.340D+00 0.660D+00
 Coeff:     -0.175D+00 0.358D+00 0.372D+00 0.445D+00
 Gap=     0.060 Goal=   None    Shift=    0.000
 Gap=     0.165 Goal=   None    Shift=    0.000
 RMSDP=1.13D-03 MaxDP=5.07D-02 DE=-8.71D-02 OVMax= 7.59D-02

 Cycle   5  Pass 0  IDiag  1:
 RMSU=  6.59D-04    CP:  9.26D-01  2.25D-01  8.29D-01  6.77D-01
 E= -712.845305685552     Delta-E=       -0.060893536108 Rises=F Damp=F
 DIIS: error= 1.76D-03 at cycle   5 NSaved=   5.
 NSaved= 5 IEnMin= 5 EnMin= -712.845305685552     IErMin= 5 ErrMin= 1.76D-03
 ErrMax= 1.76D-03  0.00D+00 EMaxC= 1.00D-01 BMatC= 6.24D-03 BMatP= 2.46D-01
 IDIUse=3 WtCom= 9.82D-01 WtEn= 1.76D-02
 Coeff-Com: -0.655D-01 0.116D+00 0.129D+00 0.197D+00 0.624D+00
 Coeff-En:   0.000D+00 0.000D+00 0.000D+00 0.000D+00 0.100D+01
 Coeff:     -0.644D-01 0.114D+00 0.127D+00 0.193D+00 0.631D+00
 Gap=     0.068 Goal=   None    Shift=    0.000
 Gap=     0.166 Goal=   None    Shift=    0.000
 RMSDP=2.41D-04 MaxDP=1.16D-02 DE=-6.09D-02 OVMax= 1.62D-02

 Cycle   6  Pass 0  IDiag  1:
 RMSU=  1.91D-04    CP:  9.26D-01  2.24D-01  8.22D-01  6.86D-01  7.85D-01
 E= -712.846520407008     Delta-E=       -0.001214721456 Rises=F Damp=F
 DIIS: error= 1.11D-03 at cycle   6 NSaved=   6.
 NSaved= 6 IEnMin= 6 EnMin= -712.846520407008     IErMin= 6 ErrMin= 1.11D-03
 ErrMax= 1.11D-03  0.00D+00 EMaxC= 1.00D-01 BMatC= 1.66D-03 BMatP= 6.24D-03
 IDIUse=3 WtCom= 9.89D-01 WtEn= 1.11D-02
 Coeff-Com: -0.136D-01 0.162D-01 0.153D-01 0.342D-01 0.373D+00 0.575D+00
 Coeff-En:   0.000D+00 0.000D+00 0.000D+00 0.000D+00 0.209D+00 0.791D+00
 Coeff:     -0.134D-01 0.160D-01 0.151D-01 0.338D-01 0.371D+00 0.577D+00
 Gap=     0.070 Goal=   None    Shift=    0.000
 Gap=     0.166 Goal=   None    Shift=    0.000
 RMSDP=1.09D-04 MaxDP=5.53D-03 DE=-1.21D-03 OVMax= 9.63D-03

 Cycle   7  Pass 0  IDiag  1:
 RMSU=  8.77D-05    CP:  9.26D-01  2.25D-01  8.22D-01  6.88D-01  8.58D-01
                    CP:  7.81D-01
 E= -712.846894868795     Delta-E=       -0.000374461787 Rises=F Damp=F
 DIIS: error= 3.95D-04 at cycle   7 NSaved=   7.
 NSaved= 7 IEnMin= 7 EnMin= -712.846894868795     IErMin= 7 ErrMin= 3.95D-04
 ErrMax= 3.95D-04  0.00D+00 EMaxC= 1.00D-01 BMatC= 2.88D-04 BMatP= 1.66D-03
 IDIUse=3 WtCom= 9.96D-01 WtEn= 3.95D-03
 Coeff-Com: -0.115D-02-0.301D-02-0.467D-02-0.132D-02 0.179D+00 0.382D+00
 Coeff-Com:  0.449D+00
 Coeff-En:   0.000D+00 0.000D+00 0.000D+00 0.000D+00 0.000D+00 0.501D-01
 Coeff-En:   0.950D+00
 Coeff:     -0.114D-02-0.300D-02-0.466D-02-0.132D-02 0.178D+00 0.381D+00
 Coeff:      0.451D+00
 Gap=     0.070 Goal=   None    Shift=    0.000
 Gap=     0.166 Goal=   None    Shift=    0.000
 RMSDP=4.38D-05 MaxDP=1.71D-03 DE=-3.74D-04 OVMax= 3.42D-03

 Cycle   8  Pass 0  IDiag  1:
 RMSU=  3.20D-05    CP:  9.26D-01  2.26D-01  8.25D-01  6.90D-01  8.75D-01
                    CP:  8.47D-01  7.69D-01
 E= -712.846967606119     Delta-E=       -0.000072737324 Rises=F Damp=F
 DIIS: error= 1.11D-04 at cycle   8 NSaved=   8.
 NSaved= 8 IEnMin= 8 EnMin= -712.846967606119     IErMin= 8 ErrMin= 1.11D-04
 ErrMax= 1.11D-04  0.00D+00 EMaxC= 1.00D-01 BMatC= 2.26D-05 BMatP= 2.88D-04
 IDIUse=3 WtCom= 9.99D-01 WtEn= 1.11D-03
 Coeff-Com:  0.518D-03-0.464D-03-0.344D-02-0.863D-02-0.191D-01 0.216D-01
 Coeff-Com:  0.202D+00 0.807D+00
 Coeff-En:   0.000D+00 0.000D+00 0.000D+00 0.000D+00 0.000D+00 0.000D+00
 Coeff-En:   0.000D+00 0.100D+01
 Coeff:      0.517D-03-0.464D-03-0.343D-02-0.862D-02-0.191D-01 0.216D-01
 Coeff:      0.202D+00 0.807D+00
 Gap=     0.071 Goal=   None    Shift=    0.000
 Gap=     0.166 Goal=   None    Shift=    0.000
 RMSDP=2.33D-05 MaxDP=1.26D-03 DE=-7.27D-05 OVMax= 1.45D-03

 Cycle   9  Pass 0  IDiag  1:
 RMSU=  1.58D-05    CP:  9.26D-01  2.25D-01  8.25D-01  6.86D-01  8.70D-01
                    CP:  8.82D-01  9.03D-01  1.05D+00
 E= -712.846977470112     Delta-E=       -0.000009863993 Rises=F Damp=F
 DIIS: error= 4.80D-05 at cycle   9 NSaved=   9.
 NSaved= 9 IEnMin= 9 EnMin= -712.846977470112     IErMin= 9 ErrMin= 4.80D-05
 ErrMax= 4.80D-05  0.00D+00 EMaxC= 1.00D-01 BMatC= 3.93D-06 BMatP= 2.26D-05
 IDIUse=1 WtCom= 1.00D+00 WtEn= 0.00D+00
 Coeff-Com:  0.371D-03 0.378D-04-0.856D-03-0.220D-02-0.338D-01-0.513D-01
 Coeff-Com: -0.689D-02 0.261D+00 0.834D+00
 Coeff:      0.371D-03 0.378D-04-0.856D-03-0.220D-02-0.338D-01-0.513D-01
 Coeff:     -0.689D-02 0.261D+00 0.834D+00
 Gap=     0.071 Goal=   None    Shift=    0.000
 Gap=     0.166 Goal=   None    Shift=    0.000
 RMSDP=1.06D-05 MaxDP=5.09D-04 DE=-9.86D-06 OVMax= 7.82D-04

 Cycle  10  Pass 0  IDiag  1:
 RMSU=  7.23D-06    CP:  9.26D-01  2.25D-01  8.24D-01  6.86D-01  8.69D-01
                    CP:  8.98D-01  9.62D-01  1.19D+00  1.07D+00
 E= -712.846979949343     Delta-E=       -0.000002479231 Rises=F Damp=F
 DIIS: error= 2.04D-05 at cycle  10 NSaved=  10.
 NSaved=10 IEnMin=10 EnMin= -712.846979949343     IErMin=10 ErrMin= 2.04D-05
 ErrMax= 2.04D-05  0.00D+00 EMaxC= 1.00D-01 BMatC= 1.64D-06 BMatP= 3.93D-06
 IDIUse=1 WtCom= 1.00D+00 WtEn= 0.00D+00
 Coeff-Com:  0.322D-03-0.395D-03 0.360D-04 0.105D-02-0.134D-01-0.331D-01
 Coeff-Com: -0.574D-01-0.863D-01 0.465D+00 0.724D+00
 Coeff:      0.322D-03-0.395D-03 0.360D-04 0.105D-02-0.134D-01-0.331D-01
 Coeff:     -0.574D-01-0.863D-01 0.465D+00 0.724D+00
 Gap=     0.071 Goal=   None    Shift=    0.000
 Gap=     0.166 Goal=   None    Shift=    0.000
 RMSDP=5.94D-06 MaxDP=3.66D-04 DE=-2.48D-06 OVMax= 4.69D-04

 Initial convergence to 1.0D-05 achieved.  Increase integral accuracy.
 Cycle  11  Pass 1  IDiag  1:
 E= -712.846969707002     Delta-E=        0.000010242341 Rises=F Damp=F
 DIIS: error= 9.40D-05 at cycle   1 NSaved=   1.
 NSaved= 1 IEnMin= 1 EnMin= -712.846969707002     IErMin= 1 ErrMin= 9.40D-05
 ErrMax= 9.40D-05  0.00D+00 EMaxC= 1.00D-01 BMatC= 1.97D-06 BMatP= 1.97D-06
 IDIUse=1 WtCom= 1.00D+00 WtEn= 0.00D+00
 Coeff-Com:  0.100D+01
 Coeff:      0.100D+01
 Gap=     0.071 Goal=   None    Shift=    0.000
 Gap=     0.166 Goal=   None    Shift=    0.000
 RMSDP=5.94D-06 MaxDP=3.66D-04 DE= 1.02D-05 OVMax= 2.38D-04

 Cycle  12  Pass 1  IDiag  1:
 RMSU=  7.22D-05    CP:  1.00D+00
 E= -712.846970164167     Delta-E=       -0.000000457165 Rises=F Damp=F
 DIIS: error= 1.24D-05 at cycle   2 NSaved=   2.
 NSaved= 2 IEnMin= 2 EnMin= -712.846970164167     IErMin= 2 ErrMin= 1.24D-05
 ErrMax= 1.24D-05  0.00D+00 EMaxC= 1.00D-01 BMatC= 3.34D-07 BMatP= 1.97D-06
 IDIUse=1 WtCom= 1.00D+00 WtEn= 0.00D+00
 Coeff-Com:  0.182D+00 0.818D+00
 Coeff:      0.182D+00 0.818D+00
 Gap=     0.071 Goal=   None    Shift=    0.000
 Gap=     0.166 Goal=   None    Shift=    0.000
 RMSDP=2.57D-06 MaxDP=1.12D-04 DE=-4.57D-07 OVMax= 1.41D-04

 Cycle  13  Pass 1  IDiag  1:
 RMSU=  2.38D-06    CP:  1.00D+00  1.01D+00
 E= -712.846970176001     Delta-E=       -0.000000011835 Rises=F Damp=F
 DIIS: error= 1.43D-05 at cycle   3 NSaved=   3.
 NSaved= 3 IEnMin= 3 EnMin= -712.846970176001     IErMin= 2 ErrMin= 1.24D-05
 ErrMax= 1.43D-05  0.00D+00 EMaxC= 1.00D-01 BMatC= 4.36D-07 BMatP= 3.34D-07
 IDIUse=1 WtCom= 1.00D+00 WtEn= 0.00D+00
 Coeff-Com: -0.122D-01 0.539D+00 0.473D+00
 Coeff:     -0.122D-01 0.539D+00 0.473D+00
 Gap=     0.071 Goal=   None    Shift=    0.000
 Gap=     0.166 Goal=   None    Shift=    0.000
 RMSDP=1.22D-06 MaxDP=6.15D-05 DE=-1.18D-08 OVMax= 9.14D-05

 Cycle  14  Pass 1  IDiag  1:
 RMSU=  8.64D-07    CP:  1.00D+00  1.01D+00  6.43D-01
 E= -712.846970267873     Delta-E=       -0.000000091872 Rises=F Damp=F
 DIIS: error= 3.60D-06 at cycle   4 NSaved=   4.
 NSaved= 4 IEnMin= 4 EnMin= -712.846970267873     IErMin= 4 ErrMin= 3.60D-06
 ErrMax= 3.60D-06  0.00D+00 EMaxC= 1.00D-01 BMatC= 1.78D-08 BMatP= 3.34D-07
 IDIUse=1 WtCom= 1.00D+00 WtEn= 0.00D+00
 Coeff-Com: -0.136D-01 0.212D+00 0.216D+00 0.585D+00
 Coeff:     -0.136D-01 0.212D+00 0.216D+00 0.585D+00
 Gap=     0.071 Goal=   None    Shift=    0.000
 Gap=     0.166 Goal=   None    Shift=    0.000
 RMSDP=5.29D-07 MaxDP=3.54D-05 DE=-9.19D-08 OVMax= 6.07D-05

 Cycle  15  Pass 1  IDiag  1:
 RMSU=  4.88D-07    CP:  1.00D+00  1.01D+00  7.03D-01  1.15D+00
 E= -712.846970274866     Delta-E=       -0.000000006993 Rises=F Damp=F
 DIIS: error= 3.24D-06 at cycle   5 NSaved=   5.
 NSaved= 5 IEnMin= 5 EnMin= -712.846970274866     IErMin= 5 ErrMin= 3.24D-06
 ErrMax= 3.24D-06  0.00D+00 EMaxC= 1.00D-01 BMatC= 1.31D-08 BMatP= 1.78D-08
 IDIUse=1 WtCom= 1.00D+00 WtEn= 0.00D+00
 Coeff-Com: -0.192D-02-0.281D+00-0.215D+00 0.600D+00 0.898D+00
 Coeff:     -0.192D-02-0.281D+00-0.215D+00 0.600D+00 0.898D+00
 Gap=     0.071 Goal=   None    Shift=    0.000
 Gap=     0.166 Goal=   None    Shift=    0.000
 RMSDP=6.88D-07 MaxDP=3.95D-05 DE=-6.99D-09 OVMax= 8.58D-05

 Cycle  16  Pass 1  IDiag  1:
 RMSU=  3.76D-07    CP:  1.00D+00  1.02D+00  7.57D-01  1.80D+00  1.11D+00
 E= -712.846970284057     Delta-E=       -0.000000009190 Rises=F Damp=F
 DIIS: error= 1.74D-06 at cycle   6 NSaved=   6.
 NSaved= 6 IEnMin= 6 EnMin= -712.846970284057     IErMin= 6 ErrMin= 1.74D-06
 ErrMax= 1.74D-06  0.00D+00 EMaxC= 1.00D-01 BMatC= 3.77D-09 BMatP= 1.31D-08
 IDIUse=1 WtCom= 1.00D+00 WtEn= 0.00D+00
 Coeff-Com:  0.254D-02-0.259D+00-0.213D+00 0.221D+00 0.634D+00 0.614D+00
 Coeff:      0.254D-02-0.259D+00-0.213D+00 0.221D+00 0.634D+00 0.614D+00
 Gap=     0.071 Goal=   None    Shift=    0.000
 Gap=     0.166 Goal=   None    Shift=    0.000
 RMSDP=3.16D-07 MaxDP=1.87D-05 DE=-9.19D-09 OVMax= 3.30D-05

 Cycle  17  Pass 1  IDiag  1:
 RMSU=  1.15D-07    CP:  1.00D+00  1.02D+00  8.24D-01  2.05D+00  1.34D+00
                    CP:  8.52D-01
 E= -712.846970285749     Delta-E=       -0.000000001692 Rises=F Damp=F
 DIIS: error= 2.39D-07 at cycle   7 NSaved=   7.
 NSaved= 7 IEnMin= 7 EnMin= -712.846970285749     IErMin= 7 ErrMin= 2.39D-07
 ErrMax= 2.39D-07  0.00D+00 EMaxC= 1.00D-01 BMatC= 2.17D-10 BMatP= 3.77D-09
 IDIUse=1 WtCom= 1.00D+00 WtEn= 0.00D+00
 Coeff-Com:  0.153D-02-0.115D+00-0.952D-01 0.682D-01 0.266D+00 0.318D+00
 Coeff-Com:  0.556D+00
 Coeff:      0.153D-02-0.115D+00-0.952D-01 0.682D-01 0.266D+00 0.318D+00
 Coeff:      0.556D+00
 Gap=     0.071 Goal=   None    Shift=    0.000
 Gap=     0.166 Goal=   None    Shift=    0.000
 RMSDP=5.43D-08 MaxDP=3.28D-06 DE=-1.69D-09 OVMax= 4.99D-06

 Cycle  18  Pass 1  IDiag  1:
 RMSU=  4.54D-08    CP:  1.00D+00  1.02D+00  8.23D-01  2.07D+00  1.35D+00
                    CP:  8.84D-01  9.79D-01
 E= -712.846970285804     Delta-E=       -0.000000000055 Rises=F Damp=F
 DIIS: error= 1.39D-07 at cycle   8 NSaved=   8.
 NSaved= 8 IEnMin= 8 EnMin= -712.846970285804     IErMin= 8 ErrMin= 1.39D-07
 ErrMax= 1.39D-07  0.00D+00 EMaxC= 1.00D-01 BMatC= 2.86D-11 BMatP= 2.17D-10
 IDIUse=1 WtCom= 1.00D+00 WtEn= 0.00D+00
 Coeff-Com:  0.576D-03-0.378D-01-0.315D-01 0.162D-01 0.857D-01 0.113D+00
 Coeff-Com:  0.305D+00 0.548D+00
 Coeff:      0.576D-03-0.378D-01-0.315D-01 0.162D-01 0.857D-01 0.113D+00
 Coeff:      0.305D+00 0.548D+00
 Gap=     0.071 Goal=   None    Shift=    0.000
 Gap=     0.166 Goal=   None    Shift=    0.000
 RMSDP=1.82D-08 MaxDP=7.14D-07 DE=-5.53D-11 OVMax= 1.30D-06

 Cycle  19  Pass 1  IDiag  1:
 RMSU=  1.55D-08    CP:  1.00D+00  1.02D+00  8.22D-01  2.08D+00  1.36D+00
                    CP:  8.90D-01  1.03D+00  8.70D-01
 E= -712.846970285809     Delta-E=       -0.000000000005 Rises=F Damp=F
 DIIS: error= 7.05D-08 at cycle   9 NSaved=   9.
 NSaved= 9 IEnMin= 9 EnMin= -712.846970285809     IErMin= 9 ErrMin= 7.05D-08
 ErrMax= 7.05D-08  0.00D+00 EMaxC= 1.00D-01 BMatC= 9.96D-12 BMatP= 2.86D-11
 IDIUse=1 WtCom= 1.00D+00 WtEn= 0.00D+00
 Coeff-Com: -0.814D-04 0.103D-01 0.855D-02-0.102D-01-0.258D-01-0.233D-01
 Coeff-Com:  0.389D-01 0.397D+00 0.604D+00
 Coeff:     -0.814D-04 0.103D-01 0.855D-02-0.102D-01-0.258D-01-0.233D-01
 Coeff:      0.389D-01 0.397D+00 0.604D+00
 Gap=     0.071 Goal=   None    Shift=    0.000
 Gap=     0.166 Goal=   None    Shift=    0.000
 RMSDP=9.12D-09 MaxDP=2.75D-07 DE=-5.00D-12 OVMax= 5.60D-07

 SCF Done:  E(UB3LYP) =  -712.846970286     A.U. after   19 cycles
            NFock= 19  Conv=0.91D-08     -V/T= 2.0090
 <Sx>= 0.0000 <Sy>= 0.0000 <Sz>= 0.5000 <S**2>= 0.7570 S= 0.5035
 <L.S>=  0.00000000000    
 KE= 7.064657628938D+02 PE=-3.989041801922D+03 EE= 1.410848548132D+03
 Annihilation of the first spin contaminant:
 S**2 before annihilation     0.7570,   after     0.7500
 Leave Link  502 at Thu Oct 17 10:21:25 2024, MaxMem=  6710886400 cpu:             822.0 elap:              54.9
 (Enter /home/zengyun1/App/g16/l601.exe)
 Copying SCF densities to generalized density rwf, IOpCl= 1 IROHF=0.

 **********************************************************************

            Population analysis using the SCF Density.

 **********************************************************************

 Orbital symmetries:
 Alpha Orbitals:
       Occupied  (A) (A) (A) (A) (A) (A) (A) (A) (A) (A) (A) (A)
                 (A) (A) (A) (A) (A) (A) (A) (A) (A) (A) (A) (A)
                 (A) (A) (A) (A) (A) (A) (A) (A) (A) (A) (A) (A)
                 (A) (A) (A) (A) (A) (A) (A) (A) (A) (A) (A) (A)
                 (A) (A) (A) (A) (A) (A) (A) (A) (A) (A) (A) (A)
                 (A) (A) (A)
       Virtual   (A) (A) (A) (A) (A) (A) (A) (A) (A) (A) (A) (A)
                 (A) (A) (A) (A) (A) (A) (A) (A) (A) (A) (A) (A)
                 (A) (A) (A) (A) (A) (A) (A) (A) (A) (A) (A) (A)
                 (A) (A) (A) (A) (A) (A) (A) (A) (A) (A) (A) (A)
                 (A) (A) (A) (A) (A) (A) (A) (A) (A) (A) (A) (A)
                 (A) (A) (A) (A) (A) (A) (A) (A) (A) (A) (A) (A)
                 (A) (A) (A) (A) (A) (A) (A) (A) (A) (A) (A) (A)
                 (A) (A) (A) (A) (A) (A) (A) (A) (A) (A) (A) (A)
                 (A) (A) (A) (A) (A) (A) (A) (A) (A) (A) (A) (A)
                 (A) (A) (A) (A) (A) (A) (A) (A) (A) (A) (A) (A)
                 (A) (A) (A) (A) (A) (A) (A) (A) (A) (A) (A) (A)
                 (A) (A) (A) (A) (A) (A) (A) (A) (A) (A) (A) (A)
                 (A) (A) (A) (A) (A) (A) (A) (A) (A) (A) (A) (A)
                 (A) (A) (A) (A) (A) (A) (A) (A) (A) (A) (A) (A)
                 (A) (A) (A) (A) (A) (A) (A) (A) (A) (A) (A) (A)
                 (A) (A) (A) (A) (A) (A) (A) (A) (A) (A) (A) (A)
                 (A) (A) (A) (A) (A) (A) (A) (A) (A) (A) (A) (A)
                 (A) (A) (A) (A) (A) (A) (A) (A) (A) (A) (A) (A)
                 (A) (A) (A) (A) (A) (A) (A) (A) (A) (A) (A) (A)
                 (A) (A)
 Beta  Orbitals:
       Occupied  (A) (A) (A) (A) (A) (A) (A) (A) (A) (A) (A) (A)
                 (A) (A) (A) (A) (A) (A) (A) (A) (A) (A) (A) (A)
                 (A) (A) (A) (A) (A) (A) (A) (A) (A) (A) (A) (A)
                 (A) (A) (A) (A) (A) (A) (A) (A) (A) (A) (A) (A)
                 (A) (A) (A) (A) (A) (A) (A) (A) (A) (A) (A) (A)
                 (A) (A)
       Virtual   (A) (A) (A) (A) (A) (A) (A) (A) (A) (A) (A) (A)
                 (A) (A) (A) (A) (A) (A) (A) (A) (A) (A) (A) (A)
                 (A) (A) (A) (A) (A) (A) (A) (A) (A) (A) (A) (A)
                 (A) (A) (A) (A) (A) (A) (A) (A) (A) (A) (A) (A)
                 (A) (A) (A) (A) (A) (A) (A) (A) (A) (A) (A) (A)
                 (A) (A) (A) (A) (A) (A) (A) (A) (A) (A) (A) (A)
                 (A) (A) (A) (A) (A) (A) (A) (A) (A) (A) (A) (A)
                 (A) (A) (A) (A) (A) (A) (A) (A) (A) (A) (A) (A)
                 (A) (A) (A) (A) (A) (A) (A) (A) (A) (A) (A) (A)
                 (A) (A) (A) (A) (A) (A) (A) (A) (A) (A) (A) (A)
                 (A) (A) (A) (A) (A) (A) (A) (A) (A) (A) (A) (A)
                 (A) (A) (A) (A) (A) (A) (A) (A) (A) (A) (A) (A)
                 (A) (A) (A) (A) (A) (A) (A) (A) (A) (A) (A) (A)
                 (A) (A) (A) (A) (A) (A) (A) (A) (A) (A) (A) (A)
                 (A) (A) (A) (A) (A) (A) (A) (A) (A) (A) (A) (A)
                 (A) (A) (A) (A) (A) (A) (A) (A) (A) (A) (A) (A)
                 (A) (A) (A) (A) (A) (A) (A) (A) (A) (A) (A) (A)
                 (A) (A) (A) (A) (A) (A) (A) (A) (A) (A) (A) (A)
                 (A) (A) (A) (A) (A) (A) (A) (A) (A) (A) (A) (A)
                 (A) (A) (A)
 The electronic state is 2-A.
 Alpha  occ. eigenvalues --  -19.04364 -14.21654 -10.13693 -10.12729 -10.10675
 Alpha  occ. eigenvalues --  -10.10136 -10.08533 -10.07503 -10.07018 -10.05475
 Alpha  occ. eigenvalues --  -10.05234 -10.01120  -9.99628  -9.98665  -9.98133
 Alpha  occ. eigenvalues --   -9.97862  -9.97167  -0.93113  -0.80960  -0.68085
 Alpha  occ. eigenvalues --   -0.67179  -0.66745  -0.60813  -0.58801  -0.56053
 Alpha  occ. eigenvalues --   -0.54849  -0.53533  -0.52288  -0.51348  -0.46922
 Alpha  occ. eigenvalues --   -0.44249  -0.41268  -0.39994  -0.39039  -0.38415
 Alpha  occ. eigenvalues --   -0.34532  -0.33319  -0.32551  -0.31822  -0.30706
 Alpha  occ. eigenvalues --   -0.30370  -0.29828  -0.28771  -0.28284  -0.28036
 Alpha  occ. eigenvalues --   -0.26925  -0.26260  -0.25703  -0.24976  -0.23188
 Alpha  occ. eigenvalues --   -0.22678  -0.21932  -0.21684  -0.20025  -0.18889
 Alpha  occ. eigenvalues --   -0.17183  -0.14655  -0.13482  -0.08776  -0.07387
 Alpha  occ. eigenvalues --   -0.06758  -0.01239   0.10554
 Alpha virt. eigenvalues --    0.17613   0.20349   0.20895   0.21251   0.22406
 Alpha virt. eigenvalues --    0.23119   0.23574   0.24233   0.24376   0.25085
 Alpha virt. eigenvalues --    0.25392   0.26420   0.27213   0.27586   0.28038
 Alpha virt. eigenvalues --    0.28455   0.28830   0.29292   0.29879   0.31134
 Alpha virt. eigenvalues --    0.31259   0.31886   0.32519   0.32924   0.33717
 Alpha virt. eigenvalues --    0.33873   0.34672   0.35693   0.36432   0.38428
 Alpha virt. eigenvalues --    0.39698   0.40514   0.41480   0.42058   0.43658
 Alpha virt. eigenvalues --    0.44355   0.47366   0.56957   0.58803   0.60499
 Alpha virt. eigenvalues --    0.61089   0.62405   0.62663   0.63039   0.63245
 Alpha virt. eigenvalues --    0.64771   0.65334   0.66972   0.67450   0.68235
 Alpha virt. eigenvalues --    0.69218   0.70238   0.72073   0.72685   0.73151
 Alpha virt. eigenvalues --    0.73991   0.75332   0.75612   0.76535   0.77494
 Alpha virt. eigenvalues --    0.78291   0.78833   0.79772   0.80044   0.81758
 Alpha virt. eigenvalues --    0.82138   0.84076   0.85458   0.85603   0.88926
 Alpha virt. eigenvalues --    0.89488   0.89524   0.91157   0.93494   0.94523
 Alpha virt. eigenvalues --    0.94885   0.95288   0.95485   0.96053   0.96891
 Alpha virt. eigenvalues --    0.97864   0.99113   0.99835   1.00875   1.00933
 Alpha virt. eigenvalues --    1.01485   1.02044   1.02306   1.02668   1.03150
 Alpha virt. eigenvalues --    1.03999   1.04930   1.05511   1.06719   1.07692
 Alpha virt. eigenvalues --    1.08198   1.09610   1.10198   1.11931   1.13063
 Alpha virt. eigenvalues --    1.14024   1.16608   1.17787   1.21224   1.22895
 Alpha virt. eigenvalues --    1.23821   1.25126   1.26272   1.28027   1.28947
 Alpha virt. eigenvalues --    1.32043   1.33954   1.34703   1.40362   1.44282
 Alpha virt. eigenvalues --    1.45935   1.47053   1.48138   1.50416   1.52422
 Alpha virt. eigenvalues --    1.54248   1.56339   1.58406   1.61166   1.62177
 Alpha virt. eigenvalues --    1.63905   1.68589   1.69938   1.71605   1.73343
 Alpha virt. eigenvalues --    1.75684   1.76246   1.76803   1.78669   1.79287
 Alpha virt. eigenvalues --    1.80267   1.81921   1.83431   1.83955   1.85943
 Alpha virt. eigenvalues --    1.87536   1.88625   1.90224   1.91587   1.92825
 Alpha virt. eigenvalues --    1.94403   1.95419   1.99003   2.00107   2.01245
 Alpha virt. eigenvalues --    2.03934   2.05229   2.06304   2.08925   2.10356
 Alpha virt. eigenvalues --    2.10424   2.11423   2.12369   2.13767   2.14466
 Alpha virt. eigenvalues --    2.14923   2.15907   2.16982   2.18698   2.20013
 Alpha virt. eigenvalues --    2.21222   2.21909   2.23106   2.24742   2.27017
 Alpha virt. eigenvalues --    2.29938   2.33923   2.34879   2.36329   2.37927
 Alpha virt. eigenvalues --    2.38183   2.40709   2.41189   2.43930   2.45115
 Alpha virt. eigenvalues --    2.47446   2.48818   2.51686   2.52744   2.54589
 Alpha virt. eigenvalues --    2.56634   2.58149   2.58936   2.59998   2.61048
 Alpha virt. eigenvalues --    2.63448   2.66116   2.70232   2.73924   2.78470
 Alpha virt. eigenvalues --    2.78635   2.81880   2.83817   2.85977   2.86960
 Alpha virt. eigenvalues --    2.89009   2.91070   2.92081   2.95588   3.03872
 Alpha virt. eigenvalues --    3.06961   3.10983   3.15303   3.22134   3.24810
 Alpha virt. eigenvalues --    3.45007   3.67464   3.79336   4.11022   4.28279
 Alpha virt. eigenvalues --    4.30622   4.32040   4.39174   4.42865   4.45682
 Alpha virt. eigenvalues --    4.45855   4.50951   4.59710   4.66349   4.68590
 Alpha virt. eigenvalues --    4.73633   4.83125   5.02887   5.08722   5.22590
  Beta  occ. eigenvalues --  -19.04364 -14.21590 -10.13691 -10.12725 -10.10673
  Beta  occ. eigenvalues --  -10.10107 -10.08532 -10.07498 -10.07052 -10.05471
  Beta  occ. eigenvalues --  -10.05182 -10.00780  -9.99752  -9.98711  -9.97657
  Beta  occ. eigenvalues --   -9.97514  -9.96847  -0.93106  -0.80774  -0.68037
  Beta  occ. eigenvalues --   -0.67145  -0.66595  -0.60147  -0.58424  -0.56007
  Beta  occ. eigenvalues --   -0.54537  -0.53363  -0.52252  -0.50977  -0.46627
  Beta  occ. eigenvalues --   -0.44119  -0.40505  -0.39881  -0.39012  -0.38338
  Beta  occ. eigenvalues --   -0.34350  -0.33178  -0.32511  -0.31738  -0.30655
  Beta  occ. eigenvalues --   -0.30089  -0.29790  -0.28747  -0.28204  -0.27999
  Beta  occ. eigenvalues --   -0.26891  -0.26227  -0.25576  -0.24662  -0.22959
  Beta  occ. eigenvalues --   -0.22646  -0.21841  -0.21540  -0.19732  -0.18834
  Beta  occ. eigenvalues --   -0.16205  -0.14516  -0.11758  -0.08211  -0.06654
  Beta  occ. eigenvalues --   -0.06244   0.00859
  Beta virt. eigenvalues --    0.17481   0.17711   0.20444   0.20975   0.21373
  Beta virt. eigenvalues --    0.22514   0.23226   0.23705   0.24318   0.24490
  Beta virt. eigenvalues --    0.25177   0.25515   0.26558   0.27304   0.27706
  Beta virt. eigenvalues --    0.28304   0.28517   0.28932   0.29723   0.29960
  Beta virt. eigenvalues --    0.31296   0.31499   0.32135   0.32613   0.33050
  Beta virt. eigenvalues --    0.33872   0.34312   0.34859   0.36171   0.37006
  Beta virt. eigenvalues --    0.38997   0.40151   0.40977   0.41844   0.42445
  Beta virt. eigenvalues --    0.43837   0.44475   0.47671   0.57311   0.59099
  Beta virt. eigenvalues --    0.60577   0.61265   0.62536   0.62910   0.63100
  Beta virt. eigenvalues --    0.63272   0.64899   0.65462   0.67204   0.67496
  Beta virt. eigenvalues --    0.68489   0.69569   0.70507   0.72201   0.73227
  Beta virt. eigenvalues --    0.73299   0.74223   0.75581   0.75828   0.77226
  Beta virt. eigenvalues --    0.77606   0.78527   0.79184   0.80087   0.80517
  Beta virt. eigenvalues --    0.82192   0.82445   0.84212   0.85590   0.86697
  Beta virt. eigenvalues --    0.89036   0.89603   0.90056   0.91517   0.93707
  Beta virt. eigenvalues --    0.94586   0.95131   0.95349   0.95663   0.96257
  Beta virt. eigenvalues --    0.96974   0.97936   0.99186   0.99942   1.00942
  Beta virt. eigenvalues --    1.01039   1.01634   1.02147   1.02341   1.02928
  Beta virt. eigenvalues --    1.03370   1.04105   1.05025   1.05565   1.06799
  Beta virt. eigenvalues --    1.07993   1.08394   1.09961   1.10274   1.12053
  Beta virt. eigenvalues --    1.13139   1.14352   1.16819   1.17868   1.21561
  Beta virt. eigenvalues --    1.23194   1.24010   1.25261   1.26410   1.28352
  Beta virt. eigenvalues --    1.29161   1.32245   1.34185   1.34849   1.40498
  Beta virt. eigenvalues --    1.44769   1.46264   1.47284   1.48384   1.50707
  Beta virt. eigenvalues --    1.52601   1.54597   1.56602   1.58629   1.61421
  Beta virt. eigenvalues --    1.63246   1.64222   1.68848   1.70250   1.72019
  Beta virt. eigenvalues --    1.73730   1.76097   1.76345   1.77172   1.78988
  Beta virt. eigenvalues --    1.79667   1.80857   1.82314   1.83508   1.84249
  Beta virt. eigenvalues --    1.86434   1.87760   1.88822   1.90324   1.91726
  Beta virt. eigenvalues --    1.93040   1.94493   1.95462   1.99427   2.00257
  Beta virt. eigenvalues --    2.01293   2.04078   2.05382   2.06429   2.09009
  Beta virt. eigenvalues --    2.10501   2.10731   2.11655   2.12741   2.13898
  Beta virt. eigenvalues --    2.14614   2.15513   2.16438   2.17248   2.18947
  Beta virt. eigenvalues --    2.20320   2.21687   2.22222   2.23316   2.24984
  Beta virt. eigenvalues --    2.27297   2.30662   2.34340   2.35730   2.36496
  Beta virt. eigenvalues --    2.38019   2.39085   2.40825   2.41245   2.44310
  Beta virt. eigenvalues --    2.45260   2.47564   2.48980   2.51872   2.53406
  Beta virt. eigenvalues --    2.54719   2.56765   2.58245   2.59401   2.60190
  Beta virt. eigenvalues --    2.61188   2.64235   2.66325   2.70461   2.74050
  Beta virt. eigenvalues --    2.78653   2.78825   2.81948   2.84109   2.86090
  Beta virt. eigenvalues --    2.87581   2.89178   2.91323   2.92228   2.95903
  Beta virt. eigenvalues --    3.04109   3.07020   3.11738   3.15650   3.22709
  Beta virt. eigenvalues --    3.25402   3.45258   3.67712   3.79573   4.11028
  Beta virt. eigenvalues --    4.28902   4.30718   4.32276   4.39741   4.42910
  Beta virt. eigenvalues --    4.45824   4.45886   4.51372   4.59746   4.66404
  Beta virt. eigenvalues --    4.68830   4.73736   4.83601   5.03325   5.08766
  Beta virt. eigenvalues --    5.23062
          Condensed to atoms (all electrons):
               1          2          3          4          5          6
     1  C    6.238813   0.092048  -0.368824   0.011282  -0.003650  -0.001858
     2  C    0.092048   5.185493   0.504692  -0.003260  -0.015608  -0.002160
     3  C   -0.368824   0.504692   5.567958   0.367884  -0.005828   0.011297
     4  C    0.011282  -0.003260   0.367884   5.440321   0.534009  -0.267023
     5  C   -0.003650  -0.015608  -0.005828   0.534009   5.308640   0.224005
     6  C   -0.001858  -0.002160   0.011297  -0.267023   0.224005   5.864081
     7  N    0.279182  -0.129511   0.000986   0.000024  -0.000070   0.000003
     8  H    0.005209  -0.031120   0.329220  -0.050219   0.002257  -0.000358
     9  H   -0.000424   0.002121  -0.052829   0.337146  -0.032088   0.003156
    10  C   -0.000034  -0.000091   0.000106   0.001582  -0.137632   0.455329
    11  C   -0.070047  -0.009892  -0.000121  -0.000001  -0.000002  -0.000001
    12  C   -0.056471  -0.003394   0.000052   0.000009   0.000016  -0.000005
    13  C    0.000066   0.000029   0.000004   0.000165   0.003948  -0.050251
    14  H    0.000000  -0.000003  -0.000007  -0.000061  -0.001583  -0.048317
    15  C    0.000000  -0.000001  -0.000002   0.000065  -0.000192  -0.074745
    16  C    0.002447   0.000239   0.000003   0.000000  -0.000000   0.000000
    17  H   -0.000264  -0.000425   0.000003   0.000000   0.000000   0.000000
    18  H    0.017581   0.007098  -0.000102   0.000000   0.000001   0.000000
    19  C    0.004532   0.000030   0.000000  -0.000000   0.000001   0.000001
    20  C    0.003129   0.002434   0.000036   0.000004  -0.000103  -0.000180
    21  H    0.001264  -0.000177  -0.000122   0.000005   0.000303   0.000324
    22  H    0.000000   0.000047   0.000004  -0.000066  -0.000086   0.000192
    23  H    0.000001   0.000001  -0.000000   0.000000   0.000035   0.005810
    24  H   -0.000054   0.000024   0.000003  -0.000085  -0.001566  -0.002323
    25  H    0.000000   0.000000   0.000001  -0.000005   0.000547  -0.000026
    26  H    0.000000  -0.000000   0.000000   0.000000   0.000193   0.008921
    27  H   -0.000002   0.000001   0.000002  -0.000133  -0.001721   0.002553
    28  O    0.000612   0.000019   0.000000  -0.000000  -0.000000  -0.000000
    29  C   -0.001557  -0.000421  -0.000001  -0.000000   0.000001   0.000001
    30  H   -0.000238  -0.000005   0.000000  -0.000000  -0.000000  -0.000000
    31  H   -0.000079   0.000003   0.000000  -0.000000  -0.000000   0.000000
    32  H    0.000403   0.000036   0.000000  -0.000000  -0.000000   0.000000
    33  H   -0.000391  -0.000117  -0.000001   0.000000  -0.000001  -0.000004
    34  H    0.011284   0.003746  -0.000091  -0.000046   0.000409   0.000596
    35  H    0.001412   0.000127  -0.000006   0.000000   0.000000  -0.000000
    36  H    0.000018   0.000003   0.000000  -0.000000  -0.000000   0.000000
               7          8          9         10         11         12
     1  C    0.279182   0.005209  -0.000424  -0.000034  -0.070047  -0.056471
     2  C   -0.129511  -0.031120   0.002121  -0.000091  -0.009892  -0.003394
     3  C    0.000986   0.329220  -0.052829   0.000106  -0.000121   0.000052
     4  C    0.000024  -0.050219   0.337146   0.001582  -0.000001   0.000009
     5  C   -0.000070   0.002257  -0.032088  -0.137632  -0.000002   0.000016
     6  C    0.000003  -0.000358   0.003156   0.455329  -0.000001  -0.000005
     7  N    7.053537  -0.000004  -0.000000   0.000002   0.343884   0.357651
     8  H   -0.000004   0.708606  -0.007616  -0.000000   0.000004  -0.000002
     9  H   -0.000000  -0.007616   0.708319  -0.000073   0.000000  -0.000000
    10  C    0.000002  -0.000000  -0.000073   4.986568  -0.000000   0.000028
    11  C    0.343884   0.000004   0.000000  -0.000000   5.056790  -0.059979
    12  C    0.357651  -0.000002  -0.000000   0.000028  -0.059979   4.904360
    13  C    0.000008  -0.000000  -0.000003   0.348965  -0.000000  -0.001303
    14  H    0.000000   0.000000   0.000010   0.346554   0.000000  -0.000002
    15  C   -0.000000   0.000000   0.000005   0.334825  -0.000000  -0.000002
    16  C   -0.045264  -0.000000  -0.000000   0.000000   0.342223   0.022926
    17  H   -0.054146  -0.000001  -0.000000   0.000000   0.361805   0.002773
    18  H   -0.045800   0.000007   0.000000   0.000000   0.301096  -0.000315
    19  C   -0.053206   0.000000   0.000000  -0.000000  -0.016870   0.344945
    20  C   -0.075522  -0.000001  -0.000000   0.000010  -0.018560   0.349072
    21  H   -0.035443   0.000001   0.000000  -0.000165   0.006301   0.365273
    22  H    0.000005   0.000000   0.000000  -0.023007  -0.000000  -0.000742
    23  H   -0.000000   0.000000   0.000000  -0.031485   0.000000   0.000061
    24  H    0.000026   0.000000   0.000000  -0.024320   0.000001  -0.001049
    25  H    0.000000  -0.000000  -0.000004  -0.025422   0.000000   0.000000
    26  H    0.000000  -0.000000  -0.000000  -0.023785   0.000000   0.000000
    27  H    0.000000   0.000000   0.000001  -0.021215   0.000000   0.000000
    28  O   -0.004290   0.000000  -0.000000  -0.000000  -0.043377  -0.035999
    29  C   -0.012007   0.000000   0.000000  -0.000000  -0.050120  -0.044050
    30  H    0.004200   0.000000  -0.000000  -0.000000  -0.042776   0.000157
    31  H    0.005264  -0.000000  -0.000000   0.000000  -0.000360  -0.030863
    32  H    0.002224   0.000000   0.000000  -0.000000   0.002579  -0.032749
    33  H    0.005956  -0.000000  -0.000000   0.000005   0.000026  -0.026333
    34  H   -0.009031   0.000004   0.000001  -0.000027   0.000924  -0.030947
    35  H   -0.000917   0.000000   0.000000  -0.000000  -0.004322  -0.000928
    36  H    0.000062  -0.000000  -0.000000  -0.000000   0.005737   0.001954
              13         14         15         16         17         18
     1  C    0.000066   0.000000   0.000000   0.002447  -0.000264   0.017581
     2  C    0.000029  -0.000003  -0.000001   0.000239  -0.000425   0.007098
     3  C    0.000004  -0.000007  -0.000002   0.000003   0.000003  -0.000102
     4  C    0.000165  -0.000061   0.000065   0.000000   0.000000   0.000000
     5  C    0.003948  -0.001583  -0.000192  -0.000000   0.000000   0.000001
     6  C   -0.050251  -0.048317  -0.074745   0.000000   0.000000   0.000000
     7  N    0.000008   0.000000  -0.000000  -0.045264  -0.054146  -0.045800
     8  H   -0.000000   0.000000   0.000000  -0.000000  -0.000001   0.000007
     9  H   -0.000003   0.000010   0.000005  -0.000000  -0.000000   0.000000
    10  C    0.348965   0.346554   0.334825   0.000000   0.000000   0.000000
    11  C   -0.000000   0.000000  -0.000000   0.342223   0.361805   0.301096
    12  C   -0.001303  -0.000002  -0.000002   0.022926   0.002773  -0.000315
    13  C    5.162451  -0.048628  -0.043875  -0.000001  -0.000000   0.000000
    14  H   -0.048628   0.730573  -0.081870   0.000000   0.000000  -0.000000
    15  C   -0.043875  -0.081870   5.289976  -0.000000  -0.000000   0.000000
    16  C   -0.000001   0.000000  -0.000000   4.787664  -0.036473  -0.010513
    17  H   -0.000000   0.000000  -0.000000  -0.036473   0.655587  -0.053342
    18  H    0.000000  -0.000000   0.000000  -0.010513  -0.053342   0.659158
    19  C   -0.000016   0.000000  -0.000000  -0.043909   0.001488   0.000344
    20  C   -0.000493  -0.000001   0.000000  -0.045359  -0.000802   0.002091
    21  H    0.002478   0.000012   0.000001   0.000317  -0.000067  -0.000344
    22  H    0.368436  -0.005395   0.006205  -0.000000   0.000000  -0.000000
    23  H    0.334807  -0.002128  -0.004303   0.000000   0.000000  -0.000000
    24  H    0.366356   0.006956  -0.010679   0.000002   0.000000  -0.000000
    25  H    0.005406  -0.003097   0.365648   0.000000  -0.000000  -0.000000
    26  H   -0.005723   0.004916   0.281196   0.000000   0.000000  -0.000000
    27  H   -0.007958   0.007470   0.348049   0.000000   0.000000  -0.000000
    28  O   -0.000000  -0.000000   0.000000   0.248914  -0.000724   0.003602
    29  C    0.000033   0.000000  -0.000000   0.356519   0.006307  -0.003668
    30  H    0.000000   0.000000  -0.000000   0.368090  -0.000525  -0.004342
    31  H    0.000022  -0.000000   0.000000   0.001247  -0.000041   0.000067
    32  H    0.000001  -0.000000   0.000000  -0.000339  -0.001829   0.000035
    33  H    0.000038   0.000000   0.000001   0.001154   0.000044  -0.000047
    34  H   -0.000388   0.000002  -0.000024   0.000668  -0.000034   0.000319
    35  H    0.000000  -0.000000   0.000000  -0.023796  -0.000234   0.004291
    36  H   -0.000000   0.000000  -0.000000  -0.029185  -0.000200  -0.000125
              19         20         21         22         23         24
     1  C    0.004532   0.003129   0.001264   0.000000   0.000001  -0.000054
     2  C    0.000030   0.002434  -0.000177   0.000047   0.000001   0.000024
     3  C    0.000000   0.000036  -0.000122   0.000004  -0.000000   0.000003
     4  C   -0.000000   0.000004   0.000005  -0.000066   0.000000  -0.000085
     5  C    0.000001  -0.000103   0.000303  -0.000086   0.000035  -0.001566
     6  C    0.000001  -0.000180   0.000324   0.000192   0.005810  -0.002323
     7  N   -0.053206  -0.075522  -0.035443   0.000005  -0.000000   0.000026
     8  H    0.000000  -0.000001   0.000001   0.000000   0.000000   0.000000
     9  H    0.000000  -0.000000   0.000000   0.000000   0.000000   0.000000
    10  C   -0.000000   0.000010  -0.000165  -0.023007  -0.031485  -0.024320
    11  C   -0.016870  -0.018560   0.006301  -0.000000   0.000000   0.000001
    12  C    0.344945   0.349072   0.365273  -0.000742   0.000061  -0.001049
    13  C   -0.000016  -0.000493   0.002478   0.368436   0.334807   0.366356
    14  H    0.000000  -0.000001   0.000012  -0.005395  -0.002128   0.006956
    15  C   -0.000000   0.000000   0.000001   0.006205  -0.004303  -0.010679
    16  C   -0.043909  -0.045359   0.000317  -0.000000   0.000000   0.000002
    17  H    0.001488  -0.000802  -0.000067   0.000000   0.000000   0.000000
    18  H    0.000344   0.002091  -0.000344  -0.000000  -0.000000  -0.000000
    19  C    4.922050  -0.050201  -0.028544   0.000018   0.000000   0.000025
    20  C   -0.050201   5.147937  -0.048048   0.000005  -0.000031   0.001516
    21  H   -0.028544  -0.048048   0.574096   0.003363  -0.000048   0.001260
    22  H    0.000018   0.000005   0.003363   0.575322  -0.033284  -0.033326
    23  H    0.000000  -0.000031  -0.000048  -0.033284   0.663954  -0.032695
    24  H    0.000025   0.001516   0.001260  -0.033326  -0.032695   0.568423
    25  H    0.000000   0.000000  -0.000000  -0.000189  -0.000143  -0.000012
    26  H    0.000000   0.000000   0.000000  -0.000302   0.004277   0.000791
    27  H    0.000000  -0.000014   0.000001  -0.000112   0.000033   0.006546
    28  O    0.246800  -0.004779   0.002554   0.000000   0.000000  -0.000000
    29  C   -0.024509   0.345620   0.005138   0.000000  -0.000000   0.000003
    30  H    0.006560   0.004895   0.000023   0.000000   0.000000  -0.000000
    31  H    0.341225  -0.002871  -0.002076   0.000007  -0.000002  -0.000006
    32  H    0.350088   0.007483  -0.002353  -0.000002  -0.000000  -0.000004
    33  H   -0.003593   0.343519   0.000108   0.000006   0.000027   0.001664
    34  H    0.005077   0.369759  -0.004208  -0.000030   0.000015   0.001936
    35  H    0.000305  -0.028781  -0.000178   0.000000  -0.000000  -0.000003
    36  H    0.001171  -0.029520  -0.000171  -0.000000   0.000000   0.000001
              25         26         27         28         29         30
     1  C    0.000000   0.000000  -0.000002   0.000612  -0.001557  -0.000238
     2  C    0.000000  -0.000000   0.000001   0.000019  -0.000421  -0.000005
     3  C    0.000001   0.000000   0.000002   0.000000  -0.000001   0.000000
     4  C   -0.000005   0.000000  -0.000133  -0.000000  -0.000000  -0.000000
     5  C    0.000547   0.000193  -0.001721  -0.000000   0.000001  -0.000000
     6  C   -0.000026   0.008921   0.002553  -0.000000   0.000001  -0.000000
     7  N    0.000000   0.000000   0.000000  -0.004290  -0.012007   0.004200
     8  H   -0.000000  -0.000000   0.000000   0.000000   0.000000   0.000000
     9  H   -0.000004  -0.000000   0.000001  -0.000000   0.000000  -0.000000
    10  C   -0.025422  -0.023785  -0.021215  -0.000000  -0.000000  -0.000000
    11  C    0.000000   0.000000   0.000000  -0.043377  -0.050120  -0.042776
    12  C    0.000000   0.000000   0.000000  -0.035999  -0.044050   0.000157
    13  C    0.005406  -0.005723  -0.007958  -0.000000   0.000033   0.000000
    14  H   -0.003097   0.004916   0.007470  -0.000000   0.000000   0.000000
    15  C    0.365648   0.281196   0.348049   0.000000  -0.000000  -0.000000
    16  C    0.000000   0.000000   0.000000   0.248914   0.356519   0.368090
    17  H   -0.000000   0.000000   0.000000  -0.000724   0.006307  -0.000525
    18  H   -0.000000  -0.000000  -0.000000   0.003602  -0.003668  -0.004342
    19  C    0.000000   0.000000   0.000000   0.246800  -0.024509   0.006560
    20  C    0.000000   0.000000  -0.000014  -0.004779   0.345620   0.004895
    21  H   -0.000000   0.000000   0.000001   0.002554   0.005138   0.000023
    22  H   -0.000189  -0.000302  -0.000112   0.000000   0.000000   0.000000
    23  H   -0.000143   0.004277   0.000033   0.000000  -0.000000   0.000000
    24  H   -0.000012   0.000791   0.006546  -0.000000   0.000003  -0.000000
    25  H    0.593394  -0.033094  -0.030497   0.000000  -0.000000   0.000000
    26  H   -0.033094   0.707287  -0.026954  -0.000000   0.000000   0.000000
    27  H   -0.030497  -0.026954   0.593238  -0.000000   0.000000   0.000000
    28  O    0.000000  -0.000000  -0.000000   8.272415  -0.050035  -0.042180
    29  C   -0.000000   0.000000   0.000000  -0.050035   5.152998  -0.049635
    30  H    0.000000   0.000000   0.000000  -0.042180  -0.049635   0.656866
    31  H   -0.000000  -0.000000  -0.000000  -0.041397   0.002250  -0.000378
    32  H   -0.000000  -0.000000  -0.000000  -0.042682  -0.000348  -0.000267
    33  H   -0.000000  -0.000000   0.000002  -0.000027  -0.033703  -0.000110
    34  H   -0.000001  -0.000000   0.000113  -0.000032  -0.027048  -0.000170
    35  H   -0.000000  -0.000000  -0.000000   0.003733   0.342596  -0.000607
    36  H    0.000000   0.000000   0.000000   0.001358   0.352679  -0.004268
              31         32         33         34         35         36
     1  C   -0.000079   0.000403  -0.000391   0.011284   0.001412   0.000018
     2  C    0.000003   0.000036  -0.000117   0.003746   0.000127   0.000003
     3  C    0.000000   0.000000  -0.000001  -0.000091  -0.000006   0.000000
     4  C   -0.000000  -0.000000   0.000000  -0.000046   0.000000  -0.000000
     5  C   -0.000000  -0.000000  -0.000001   0.000409   0.000000  -0.000000
     6  C    0.000000   0.000000  -0.000004   0.000596  -0.000000   0.000000
     7  N    0.005264   0.002224   0.005956  -0.009031  -0.000917   0.000062
     8  H   -0.000000   0.000000  -0.000000   0.000004   0.000000  -0.000000
     9  H   -0.000000   0.000000  -0.000000   0.000001   0.000000  -0.000000
    10  C    0.000000  -0.000000   0.000005  -0.000027  -0.000000  -0.000000
    11  C   -0.000360   0.002579   0.000026   0.000924  -0.004322   0.005737
    12  C   -0.030863  -0.032749  -0.026333  -0.030947  -0.000928   0.001954
    13  C    0.000022   0.000001   0.000038  -0.000388   0.000000  -0.000000
    14  H   -0.000000  -0.000000   0.000000   0.000002  -0.000000   0.000000
    15  C    0.000000   0.000000   0.000001  -0.000024   0.000000  -0.000000
    16  C    0.001247  -0.000339   0.001154   0.000668  -0.023796  -0.029185
    17  H   -0.000041  -0.001829   0.000044  -0.000034  -0.000234  -0.000200
    18  H    0.000067   0.000035  -0.000047   0.000319   0.004291  -0.000125
    19  C    0.341225   0.350088  -0.003593   0.005077   0.000305   0.001171
    20  C   -0.002871   0.007483   0.343519   0.369759  -0.028781  -0.029520
    21  H   -0.002076  -0.002353   0.000108  -0.004208  -0.000178  -0.000171
    22  H    0.000007  -0.000002   0.000006  -0.000030   0.000000  -0.000000
    23  H   -0.000002  -0.000000   0.000027   0.000015  -0.000000   0.000000
    24  H   -0.000006  -0.000004   0.001664   0.001936  -0.000003   0.000001
    25  H   -0.000000  -0.000000  -0.000000  -0.000001  -0.000000   0.000000
    26  H   -0.000000  -0.000000  -0.000000  -0.000000  -0.000000   0.000000
    27  H   -0.000000  -0.000000   0.000002   0.000113  -0.000000   0.000000
    28  O   -0.041397  -0.042682  -0.000027  -0.000032   0.003733   0.001358
    29  C    0.002250  -0.000348  -0.033703  -0.027048   0.342596   0.352679
    30  H   -0.000378  -0.000267  -0.000110  -0.000170  -0.000607  -0.004268
    31  H    0.668470  -0.052694   0.002897   0.000102  -0.000027  -0.000440
    32  H   -0.052694   0.644870  -0.000233  -0.000147   0.000054   0.000037
    33  H    0.002897  -0.000233   0.640678  -0.037061   0.003250  -0.011113
    34  H    0.000102  -0.000147  -0.037061   0.536448  -0.008433   0.003464
    35  H   -0.000027   0.000054   0.003250  -0.008433   0.618049  -0.036574
    36  H   -0.000440   0.000037  -0.011113   0.003464  -0.036574   0.625374
          Atomic-Atomic Spin Densities.
               1          2          3          4          5          6
     1  C    0.316794  -0.007128  -0.016061   0.003708   0.000282  -0.000585
     2  C   -0.007128  -0.114665   0.026382  -0.004886  -0.000851   0.000274
     3  C   -0.016061   0.026382   0.528575  -0.185119  -0.010672   0.003768
     4  C    0.003708  -0.004886  -0.185119   0.394763   0.049082  -0.011752
     5  C    0.000282  -0.000851  -0.010672   0.049082  -0.060739  -0.018618
     6  C   -0.000585   0.000274   0.003768  -0.011752  -0.018618   0.280818
     7  N   -0.032315   0.002031   0.000260  -0.000007  -0.000004  -0.000001
     8  H   -0.001353  -0.003751   0.007256  -0.000298   0.000248   0.000051
     9  H    0.000035   0.000195  -0.000334   0.005805  -0.002983  -0.000748
    10  C   -0.000025   0.000030   0.000046  -0.000227   0.000926   0.024393
    11  C   -0.016218  -0.001199   0.000049  -0.000001  -0.000001  -0.000000
    12  C   -0.008993  -0.000586   0.000030  -0.000005  -0.000010   0.000019
    13  C    0.000022  -0.000004  -0.000006   0.000028   0.000444  -0.005628
    14  H    0.000002  -0.000003  -0.000007   0.000105   0.002405  -0.006611
    15  C    0.000000   0.000002  -0.000003   0.000045  -0.000729  -0.025060
    16  C   -0.000273  -0.000031   0.000000  -0.000000  -0.000000   0.000000
    17  H   -0.000216  -0.000049  -0.000000   0.000000  -0.000000  -0.000000
    18  H    0.010068   0.000499  -0.000102   0.000003   0.000001  -0.000000
    19  C    0.000401   0.000021   0.000000   0.000000   0.000000  -0.000000
    20  C    0.003953   0.000383  -0.000013   0.000001   0.000003   0.000001
    21  H    0.000673  -0.000653  -0.000033   0.000015   0.000041  -0.000057
    22  H   -0.000039   0.000021   0.000008  -0.000020  -0.000309   0.000800
    23  H    0.000000  -0.000000  -0.000000   0.000000   0.000018   0.000179
    24  H   -0.000027  -0.000036   0.000002  -0.000003   0.000106   0.001371
    25  H   -0.000000  -0.000000   0.000000  -0.000006  -0.000029   0.000578
    26  H   -0.000000  -0.000000   0.000000  -0.000002   0.000035   0.002639
    27  H   -0.000001  -0.000001   0.000005  -0.000040  -0.000144   0.004604
    28  O    0.000029   0.000000  -0.000000   0.000000   0.000000  -0.000000
    29  C   -0.000004   0.000004   0.000002  -0.000000  -0.000000   0.000000
    30  H   -0.000136  -0.000002   0.000000  -0.000000  -0.000000   0.000000
    31  H    0.000021   0.000003   0.000000  -0.000000  -0.000000  -0.000000
    32  H   -0.000064   0.000016   0.000000  -0.000000  -0.000000   0.000000
    33  H   -0.000049  -0.000000   0.000000  -0.000000   0.000000   0.000002
    34  H    0.001502   0.000036  -0.000042   0.000025  -0.000001  -0.000100
    35  H    0.000875   0.000014  -0.000005   0.000000   0.000000  -0.000000
    36  H   -0.000012  -0.000000   0.000000  -0.000000  -0.000000   0.000000
               7          8          9         10         11         12
     1  C   -0.032315  -0.001353   0.000035  -0.000025  -0.016218  -0.008993
     2  C    0.002031  -0.003751   0.000195   0.000030  -0.001199  -0.000586
     3  C    0.000260   0.007256  -0.000334   0.000046   0.000049   0.000030
     4  C   -0.000007  -0.000298   0.005805  -0.000227  -0.000001  -0.000005
     5  C   -0.000004   0.000248  -0.002983   0.000926  -0.000001  -0.000010
     6  C   -0.000001   0.000051  -0.000748   0.024393  -0.000000   0.000019
     7  N    0.051736  -0.000009   0.000000  -0.000000   0.000239   0.001482
     8  H   -0.000009  -0.023784   0.000455   0.000000  -0.000003  -0.000000
     9  H    0.000000   0.000455  -0.018678  -0.000003  -0.000000   0.000000
    10  C   -0.000000   0.000000  -0.000003  -0.008145  -0.000000   0.000007
    11  C    0.000239  -0.000003  -0.000000  -0.000000   0.044304   0.004814
    12  C    0.001482  -0.000000   0.000000   0.000007   0.004814   0.018745
    13  C   -0.000004  -0.000000  -0.000000  -0.005554  -0.000000   0.000006
    14  H    0.000000  -0.000000  -0.000001  -0.019695   0.000000  -0.000001
    15  C   -0.000000   0.000000   0.000000  -0.018036  -0.000000   0.000001
    16  C    0.000282   0.000000  -0.000000   0.000000  -0.002484   0.004142
    17  H   -0.001717  -0.000000  -0.000000  -0.000000   0.003958   0.000528
    18  H   -0.001308   0.000004   0.000000   0.000000  -0.027055  -0.001990
    19  C   -0.000328   0.000000   0.000000  -0.000000  -0.000263  -0.000756
[...]
  YYZ=              0.8826  XYZ=             -2.7478
 Hexadecapole moment (field-independent basis, Debye-Ang**3):
 XXXX=          -5314.9808 YYYY=          -2082.8308 ZZZZ=           -518.0253 XXXY=            125.0822
 XXXZ=             64.4074 YYYX=             28.8794 YYYZ=             17.7301 ZZZX=             -8.6949
 ZZZY=              9.4071 XXYY=          -1243.3883 XXZZ=           -902.7698 YYZZ=           -435.4270
 XXYZ=             13.6840 YYXZ=              4.8379 ZZXY=              5.4817
 N-N= 1.158880520610D+03 E-N=-3.989041804264D+03  KE= 7.064657628938D+02
                          Isotropic Fermi Contact Couplings
        Atom                 a.u.       MegaHertz       Gauss      10(-4) cm-1
     1  C(13)              0.02088      23.46831       8.37408       7.82818
     2  C(13)             -0.02897     -32.57223     -11.62258     -10.86493
     3  C(13)              0.03239      36.41344      12.99322      12.14622
     4  C(13)              0.01973      22.18231       7.91520       7.39922
     5  C(13)             -0.01844     -20.72866      -7.39650      -6.91434
     6  C(13)              0.02159      24.27293       8.66118       8.09658
     7  N(14)              0.01401       4.52547       1.61480       1.50953
     8  H(1)              -0.00605     -27.02183      -9.64206      -9.01351
     9  H(1)              -0.00466     -20.82450      -7.43070      -6.94631
    10  C(13)             -0.00901     -10.13207      -3.61537      -3.37969
    11  C(13)              0.01594      17.91733       6.39335       5.97658
    12  C(13)              0.00175       1.96649       0.70169       0.65595
    13  C(13)              0.00122       1.37393       0.49025       0.45829
    14  H(1)               0.00495      22.14734       7.90272       7.38756
    15  C(13)              0.04083      45.89551      16.37666      15.30909
    16  C(13)             -0.00005      -0.05914      -0.02110      -0.01973
    17  H(1)               0.00034       1.49842       0.53467       0.49982
    18  H(1)               0.00011       0.48676       0.17369       0.16237
    19  C(13)              0.00364       4.09269       1.46037       1.36517
    20  C(13)              0.00104       1.16661       0.41628       0.38914
    21  H(1)               0.00001       0.04470       0.01595       0.01491
    22  H(1)              -0.00007      -0.29578      -0.10554      -0.09866
    23  H(1)              -0.00007      -0.33164      -0.11834      -0.11062
    24  H(1)              -0.00013      -0.57853      -0.20644      -0.19298
    25  H(1)              -0.00012      -0.55740      -0.19889      -0.18593
    26  H(1)               0.00114       5.10522       1.82167       1.70292
    27  H(1)              -0.00025      -1.10658      -0.39486      -0.36912
    28  O(17)             -0.00002       0.01398       0.00499       0.00466
    29  C(13)              0.00014       0.15286       0.05454       0.05099
    30  H(1)               0.00025       1.13186       0.40388       0.37755
    31  H(1)               0.00004       0.19213       0.06856       0.06409
    32  H(1)              -0.00003      -0.13053      -0.04658      -0.04354
    33  H(1)              -0.00001      -0.02921      -0.01042      -0.00974
    34  H(1)              -0.00006      -0.25744      -0.09186      -0.08587
    35  H(1)              -0.00001      -0.06304      -0.02249      -0.02103
    36  H(1)              -0.00002      -0.09940      -0.03547      -0.03316
 --------------------------------------------------------
       Center         ----  Spin Dipole Couplings  ----
                      3XX-RR        3YY-RR        3ZZ-RR
 --------------------------------------------------------
     1   Atom       -0.126338     -0.118494      0.244832
     2   Atom        0.040065      0.005262     -0.045327
     3   Atom       -0.191339     -0.184875      0.376215
     4   Atom       -0.140229     -0.139790      0.280019
     5   Atom       -0.033825      0.025976      0.007850
     6   Atom       -0.108192     -0.124534      0.232726
     7   Atom       -0.028674     -0.039696      0.068370
     8   Atom       -0.026284      0.028587     -0.002303
     9   Atom        0.004163     -0.001350     -0.002813
    10   Atom       -0.003283      0.004787     -0.001505
    11   Atom        0.016516     -0.007293     -0.009223
    12   Atom       -0.001215      0.003968     -0.002753
    13   Atom       -0.000901      0.003335     -0.002434
    14   Atom       -0.001829      0.004279     -0.002450
    15   Atom       -0.002255     -0.003422      0.005677
    16   Atom        0.000070      0.001499     -0.001569
    17   Atom        0.003687     -0.001938     -0.001749
    18   Atom        0.002693     -0.002154     -0.000540
    19   Atom        0.000078      0.000792     -0.000870
    20   Atom       -0.001624     -0.000419      0.002043
    21   Atom       -0.000480      0.002708     -0.002229
    22   Atom       -0.000327      0.001230     -0.000904
    23   Atom       -0.000747      0.001883     -0.001136
    24   Atom        0.000340      0.001982     -0.002322
    25   Atom        0.001014     -0.000104     -0.000910
    26   Atom       -0.001477      0.002938     -0.001461
    27   Atom       -0.002881      0.000986      0.001895
    28   Atom        0.000865      0.000148     -0.001013
    29   Atom       -0.000325     -0.000238      0.000563
    30   Atom        0.001130     -0.000445     -0.000685
    31   Atom       -0.000164      0.000813     -0.000648
    32   Atom       -0.000079      0.000250     -0.000170
    33   Atom       -0.000386      0.001265     -0.000879
    34   Atom       -0.000501      0.001817     -0.001316
    35   Atom       -0.000017     -0.000258      0.000274
    36   Atom        0.000132      0.000091     -0.000223
 --------------------------------------------------------
                        XY            XZ            YZ
 --------------------------------------------------------
     1   Atom        0.011135      0.037972     -0.038479
     2   Atom       -0.030931     -0.004267      0.019487
     3   Atom       -0.002645      0.043703     -0.084653
     4   Atom        0.001613      0.024335     -0.060931
     5   Atom        0.011240      0.004764      0.002380
     6   Atom       -0.005221      0.029604     -0.042646
     7   Atom        0.003816     -0.041895     -0.016559
     8   Atom        0.002377      0.002764      0.004767
     9   Atom       -0.021244     -0.003886      0.002006
    10   Atom        0.001507     -0.000926     -0.000591
    11   Atom       -0.002126     -0.000008     -0.000981
    12   Atom       -0.000873      0.000680      0.001983
    13   Atom       -0.003031      0.000135      0.000414
    14   Atom        0.003694      0.000730      0.002289
    15   Atom        0.003093     -0.006530     -0.006719
    16   Atom       -0.001391      0.000728     -0.001539
    17   Atom        0.000693     -0.001110     -0.000016
    18   Atom        0.000752      0.002800      0.001976
    19   Atom       -0.001649     -0.000506      0.000822
    20   Atom       -0.000997     -0.001668     -0.001611
    21   Atom       -0.000165     -0.000270      0.001856
    22   Atom       -0.001294     -0.001407      0.002055
    23   Atom       -0.000411     -0.000064      0.000804
    24   Atom       -0.001678      0.000095      0.000145
    25   Atom        0.001826     -0.002834     -0.001000
    26   Atom        0.001789     -0.000403     -0.001271
    27   Atom        0.000698      0.000977     -0.002499
    28   Atom       -0.000900     -0.000323     -0.000216
    29   Atom       -0.001355      0.000297     -0.000423
    30   Atom       -0.000716      0.000699     -0.000220
    31   Atom       -0.000853     -0.000264      0.000395
    32   Atom       -0.001170     -0.001120      0.001049
    33   Atom       -0.000572      0.000038     -0.000481
    34   Atom       -0.000880      0.000322     -0.002295
    35   Atom       -0.000778      0.001086     -0.000855
    36   Atom       -0.000745      0.000537     -0.000614
 --------------------------------------------------------


 ---------------------------------------------------------------------------------
              Anisotropic Spin Dipole Couplings in Principal Axis System
 ---------------------------------------------------------------------------------

       Atom             a.u.   MegaHertz   Gauss  10(-4) cm-1        Axes

              Baa    -0.1416   -19.002    -6.781    -6.339  0.7835 -0.6061 -0.1373
     1 C(13)  Bbb    -0.1108   -14.868    -5.305    -4.959  0.6139  0.7891  0.0198
              Bcc     0.2524    33.870    12.086    11.298  0.0964 -0.0998  0.9903
 
              Baa    -0.0524    -7.034    -2.510    -2.346 -0.0759 -0.3555  0.9316
     2 C(13)  Bbb    -0.0075    -1.010    -0.360    -0.337  0.5339  0.7746  0.3391
              Bcc     0.0599     8.043     2.870     2.683  0.8422 -0.5231 -0.1310
 
              Baa    -0.2000   -26.836    -9.576    -8.952 -0.5703  0.8054  0.1616
     3 C(13)  Bbb    -0.1920   -25.762    -9.193    -8.593  0.8180  0.5747  0.0227
              Bcc     0.3920    52.599    18.769    17.545  0.0746 -0.1451  0.9866
 
              Baa    -0.1511   -20.275    -7.235    -6.763 -0.4647  0.8727  0.1496
     4 C(13)  Bbb    -0.1389   -18.641    -6.652    -6.218  0.8837  0.4677  0.0167
              Bcc     0.2900    38.916    13.886    12.981  0.0554 -0.1399  0.9886
 
              Baa    -0.0363    -4.869    -1.737    -1.624  0.9801 -0.1733 -0.0965
     5 C(13)  Bbb     0.0078     1.042     0.372     0.347  0.0668 -0.1697  0.9832
              Bcc     0.0285     3.827     1.366     1.277  0.1867  0.9701  0.1547
 
              Baa    -0.1297   -17.406    -6.211    -5.806  0.0901  0.9899  0.1091
     6 C(13)  Bbb    -0.1106   -14.844    -5.297    -4.952  0.9922 -0.0797 -0.0955
              Bcc     0.2403    32.250    11.508    10.757  0.0858 -0.1169  0.9894
 
              Baa    -0.0456    -1.757    -0.627    -0.586  0.7799  0.5113  0.3611
     7 N(14)  Bbb    -0.0406    -1.567    -0.559    -0.523 -0.5233  0.8491 -0.0721
              Bcc     0.0862     3.325     1.186     1.109 -0.3435 -0.1327  0.9297
 
              Baa    -0.0267   -14.225    -5.076    -4.745  0.9938 -0.0336 -0.1062
     8 H(1)   Bbb    -0.0028    -1.485    -0.530    -0.495  0.0997 -0.1569  0.9826
              Bcc     0.0294    15.710     5.606     5.240  0.0497  0.9870  0.1525
 
              Baa    -0.0201   -10.715    -3.823    -3.574  0.6634  0.7456  0.0627
     9 H(1)   Bbb    -0.0034    -1.831    -0.653    -0.611  0.0781 -0.1523  0.9852
              Bcc     0.0235    12.545     4.476     4.185  0.7442 -0.6487 -0.1593
 
              Baa    -0.0038    -0.515    -0.184    -0.172  0.9321 -0.1399  0.3340
    10 C(13)  Bbb    -0.0013    -0.175    -0.062    -0.058 -0.3102  0.1676  0.9358
              Bcc     0.0051     0.690     0.246     0.230  0.1869  0.9759 -0.1128
 
              Baa    -0.0097    -1.296    -0.463    -0.432  0.0334  0.4078  0.9125
    11 C(13)  Bbb    -0.0070    -0.945    -0.337    -0.315  0.0819  0.9088 -0.4092
              Bcc     0.0167     2.242     0.800     0.748  0.9961 -0.0884  0.0030
 
              Baa    -0.0036    -0.487    -0.174    -0.162 -0.3517 -0.2741  0.8951
    12 C(13)  Bbb    -0.0010    -0.129    -0.046    -0.043  0.9290  0.0158  0.3698
              Bcc     0.0046     0.615     0.220     0.205 -0.1155  0.9616  0.2491
 
              Baa    -0.0028    -0.372    -0.133    -0.124 -0.6315 -0.3598  0.6869
    13 C(13)  Bbb    -0.0022    -0.289    -0.103    -0.096  0.6240  0.2899  0.7256
              Bcc     0.0049     0.661     0.236     0.221 -0.4602  0.8869  0.0414
 
              Baa    -0.0037    -1.981    -0.707    -0.661  0.7734 -0.4770  0.4174
    14 H(1)   Bbb    -0.0029    -1.563    -0.558    -0.521 -0.4877 -0.0272  0.8726
              Bcc     0.0066     3.544     1.265     1.182  0.4049  0.8785  0.2536
 
              Baa    -0.0071    -0.947    -0.338    -0.316  0.2000  0.8205  0.5356
    15 C(13)  Bbb    -0.0057    -0.761    -0.271    -0.254  0.8783 -0.3924  0.2731
              Bcc     0.0127     1.707     0.609     0.569 -0.4343 -0.4158  0.7991
 
              Baa    -0.0022    -0.298    -0.106    -0.099 -0.0802  0.3554  0.9313
    16 C(13)  Bbb    -0.0008    -0.102    -0.036    -0.034  0.8769  0.4693 -0.1036
              Bcc     0.0030     0.400     0.143     0.133 -0.4739  0.8083 -0.3493
 
              Baa    -0.0021    -1.126    -0.402    -0.376 -0.2071  0.7733 -0.5993
    17 H(1)   Bbb    -0.0019    -0.999    -0.356    -0.333  0.0776  0.6236  0.7779
              Bcc     0.0040     2.125     0.758     0.709  0.9752  0.1146 -0.1892
 
              Baa    -0.0037    -1.958    -0.698    -0.653  0.1952  0.7410 -0.6426
    18 H(1)   Bbb    -0.0010    -0.559    -0.200    -0.187 -0.5437  0.6270  0.5579
              Bcc     0.0047     2.517     0.898     0.839  0.8163  0.2404  0.5252
 
              Baa    -0.0013    -0.178    -0.064    -0.060  0.5580  0.6390 -0.5295
    19 C(13)  Bbb    -0.0011    -0.144    -0.051    -0.048  0.5783  0.1582  0.8004
              Bcc     0.0024     0.322     0.115     0.108 -0.5952  0.7528  0.2812
 
              Baa    -0.0032    -0.426    -0.152    -0.142  0.7608  0.5102  0.4011
    20 C(13)  Bbb     0.0001     0.008     0.003     0.003 -0.6001  0.7883  0.1356
              Bcc     0.0031     0.417     0.149     0.139 -0.2470 -0.3439  0.9060
 
              Baa    -0.0029    -1.529    -0.546    -0.510  0.0855 -0.3124  0.9461
    21 H(1)   Bbb    -0.0005    -0.255    -0.091    -0.085  0.9943  0.0870 -0.0612
              Bcc     0.0033     1.784     0.637     0.595 -0.0632  0.9459  0.3181
 
              Baa    -0.0024    -1.261    -0.450    -0.420  0.3650 -0.3597  0.8587
    22 H(1)   Bbb    -0.0010    -0.552    -0.197    -0.184  0.8168  0.5664 -0.1099
              Bcc     0.0034     1.812     0.647     0.605 -0.4468  0.7415  0.5005
 
              Baa    -0.0013    -0.715    -0.255    -0.238 -0.0694 -0.2497  0.9658
    23 H(1)   Bbb    -0.0008    -0.429    -0.153    -0.143  0.9875  0.1205  0.1021
              Bcc     0.0021     1.143     0.408     0.381 -0.1418  0.9608  0.2383
 
              Baa    -0.0023    -1.247    -0.445    -0.416 -0.0742 -0.0621  0.9953
    24 H(1)   Bbb    -0.0007    -0.369    -0.132    -0.123  0.8455  0.5253  0.0958
              Bcc     0.0030     1.617     0.577     0.539 -0.5288  0.8486  0.0136
 
              Baa    -0.0030    -1.584    -0.565    -0.529  0.6103 -0.1154  0.7837
    25 H(1)   Bbb    -0.0011    -0.587    -0.209    -0.196 -0.2896  0.8884  0.3563
              Bcc     0.0041     2.171     0.775     0.724  0.7373  0.4444 -0.5088
 
              Baa    -0.0021    -1.129    -0.403    -0.377  0.9242 -0.3596 -0.1290
    26 H(1)   Bbb    -0.0018    -0.953    -0.340    -0.318  0.2047  0.1812  0.9619
              Bcc     0.0039     2.082     0.743     0.695  0.3225  0.9153 -0.2411
 
              Baa    -0.0035    -1.848    -0.660    -0.617  0.8970 -0.3148 -0.3104
    27 H(1)   Bbb    -0.0005    -0.283    -0.101    -0.094  0.4397  0.7081  0.5525
              Bcc     0.0040     2.131     0.760     0.711  0.0458 -0.6320  0.7736
 
              Baa    -0.0012     0.087     0.031     0.029  0.2874  0.3364  0.8968
    28 O(17)  Bbb    -0.0003     0.021     0.007     0.007  0.4740  0.7637 -0.4384
              Bcc     0.0015    -0.107    -0.038    -0.036  0.8323 -0.5511 -0.0600
 
              Baa    -0.0016    -0.220    -0.079    -0.073  0.7127  0.7004  0.0384
    29 C(13)  Bbb     0.0003     0.034     0.012     0.011 -0.3923  0.3526  0.8496
              Bcc     0.0014     0.187     0.067     0.062 -0.5815  0.6206 -0.5261
 
              Baa    -0.0009    -0.494    -0.176    -0.165 -0.3506 -0.0962  0.9316
    30 H(1)   Bbb    -0.0007    -0.380    -0.136    -0.127  0.2862  0.9361  0.2044
              Bcc     0.0016     0.873     0.312     0.291  0.8917 -0.3383  0.3006
 
              Baa    -0.0008    -0.408    -0.146    -0.136  0.3369 -0.0531  0.9401
    31 H(1)   Bbb    -0.0007    -0.347    -0.124    -0.116  0.8030  0.5376 -0.2574
              Bcc     0.0014     0.756     0.270     0.252 -0.4917  0.8415  0.2237
 
              Baa    -0.0013    -0.669    -0.239    -0.223  0.7493  0.1300  0.6494
    32 H(1)   Bbb    -0.0010    -0.525    -0.187    -0.175  0.3329  0.7738 -0.5390
              Bcc     0.0022     1.194     0.426     0.398 -0.5725  0.6200  0.5365
 
              Baa    -0.0010    -0.531    -0.190    -0.177  0.1718  0.2463  0.9539
    33 H(1)   Bbb    -0.0005    -0.288    -0.103    -0.096  0.9434  0.2376 -0.2312
              Bcc     0.0015     0.819     0.292     0.273 -0.2836  0.9396 -0.1915
 
              Baa    -0.0025    -1.353    -0.483    -0.451  0.0669  0.4759  0.8770
    34 H(1)   Bbb    -0.0007    -0.385    -0.137    -0.128  0.9685  0.1803 -0.1717
              Bcc     0.0033     1.738     0.620     0.580 -0.2399  0.8608 -0.4488
 
              Baa    -0.0010    -0.519    -0.185    -0.173  0.8029  0.2037 -0.5603
    35 H(1)   Bbb    -0.0009    -0.472    -0.168    -0.157  0.1347  0.8535  0.5034
              Bcc     0.0019     0.991     0.353     0.330  0.5807 -0.4796  0.6578
 
              Baa    -0.0007    -0.377    -0.134    -0.126  0.1806  0.7007  0.6902
    36 H(1)   Bbb    -0.0006    -0.313    -0.112    -0.105  0.7633  0.3427 -0.5476
              Bcc     0.0013     0.690     0.246     0.230 -0.6203  0.6257 -0.4730
 

 ---------------------------------------------------------------------------------

 No NMR shielding tensors so no spin-rotation constants.
 Leave Link  601 at Thu Oct 17 10:21:25 2024, MaxMem=  6710886400 cpu:               2.6 elap:               0.2
 (Enter /home/zengyun1/App/g16/l9999.exe)
 Unable to Open any file for archive entry.
 1\1\GINC-SHENG-P340-21-194\SP\UB3LYP\6-31G(d)\C15H19N1O1(1-,2)\ZENGYUN
 1\17-Oct-2024\0\\#P B3LYP/6-31G* em=gd3 out=wfn\\Title Card Required\\
 -1,2\C,0,-1.075347,-2.126391,-0.001024\C,0,-0.04815,-1.468735,-0.00171
 \C,0,1.11754,-0.680582,0.006873\C,0,1.126959,0.680582,-0.004631\C,0,-0
 .049512,1.468836,-0.003133\C,0,-1.07149,2.126289,0.003625\N,0,-2.23517
 9,-2.786008,-0.029637\H,0,2.072268,-1.204463,0.018781\H,0,2.085399,1.1
 95164,-0.013883\C,0,-2.331724,2.874339,0.037702\C,0,-2.346174,-4.09974
 6,0.651142\C,0,-3.481441,-1.987844,0.081272\C,0,-3.529451,1.934568,-0.
 216492\H,0,-2.313628,3.621811,-0.770276\C,0,-2.495565,3.629719,1.37335
 8\C,0,-3.696799,-4.120221,1.379838\H,0,-2.305496,-4.911773,-0.084114\H
 ,0,-1.521478,-4.226075,1.362345\C,0,-4.626342,-2.874175,-0.414804\C,0,
 -3.713167,-1.616369,1.554982\H,0,-3.376727,-1.105676,-0.55405\H,0,-3.4
 22462,1.4108,-1.171998\H,0,-4.466198,2.503975,-0.235041\H,0,-3.597152,
 1.184718,0.579759\H,0,-1.657577,4.312373,1.546073\H,0,-3.424481,4.2122
 6,1.368585\H,0,-2.534579,2.922218,2.209189\O,0,-4.757941,-4.036183,0.4
 20962\C,0,-3.799848,-2.943586,2.364717\H,0,-3.830297,-5.080308,1.88619
 4\H,0,-5.571278,-2.315957,-0.386179\H,0,-4.439901,-3.192885,-1.448752\
 H,0,-4.633538,-1.028548,1.648903\H,0,-2.884402,-0.987149,1.896465\H,0,
 -2.998402,-3.011104,3.110525\H,0,-4.751997,-3.02032,2.897135\\Version=
 ES64L-G16RevC.01\State=2-A\HF=-712.8469703\S2=0.75699\S2-1=0.\S2A=0.75
 0038\RMSD=9.124e-09\Dipole=-3.2579688,-1.5868153,0.9510688\Quadrupole=
 -8.4055552,-5.2769983,13.6825535,-11.8344584,4.3813517,-1.0965413\PG=C
 01 [X(C15H19N1O1)]\\@
 The archive entry for this job was punched.

 Writing a WFN file to "N+1.wfn"


 I KNOW YOU BELIEVE YOU UNDERSTAND WHAT YOU THINK I SAID,
 BUT I AM NOT SURE YOU REALIZE THAT WHAT YOU HEARD IS NOT WHAT I MEANT.
 Job cpu time:       0 days  0 hours 14 minutes 14.2 seconds.
 Elapsed time:       0 days  0 hours  0 minutes 57.1 seconds.
 File lengths (MBytes):  RWF=     85 Int=      0 D2E=      0 Chk=      7 Scr=      1
 Normal termination of Gaussian 16 at Thu Oct 17 10:21:25 2024.
