 Entering Gaussian System, Link 0=g16
 Input=N-1.gjf
 Output=N-1.log
 Initial command:
 /home/zengyun1/App/g16/l1.exe "/home/zengyun1/App/g16/scratch/Gau-15048.inp" -scrdir="/home/zengyun1/App/g16/scratch/"
 Default is to use a total of  15 processors:
                               15 via shared-memory
                                1 via Linda
 Entering Link 1 = /home/zengyun1/App/g16/l1.exe PID=     15050.
  
 Copyright (c) 1988-2019, Gaussian, Inc.  All Rights Reserved.
  
 This is part of the Gaussian(R) 16 program.  It is based on
 the Gaussian(R) 09 system (copyright 2009, Gaussian, Inc.),
 the Gaussian(R) 03 system (copyright 2003, Gaussian, Inc.),
 the Gaussian(R) 98 system (copyright 1998, Gaussian, Inc.),
 the Gaussian(R) 94 system (copyright 1995, Gaussian, Inc.),
 the Gaussian 92(TM) system (copyright 1992, Gaussian, Inc.),
 the Gaussian 90(TM) system (copyright 1990, Gaussian, Inc.),
 the Gaussian 88(TM) system (copyright 1988, Gaussian, Inc.),
 the Gaussian 86(TM) system (copyright 1986, Carnegie Mellon
 University), and the Gaussian 82(TM) system (copyright 1983,
 Carnegie Mellon University). Gaussian is a federally registered
 trademark of Gaussian, Inc.
  
 This software contains proprietary and confidential information,
 including trade secrets, belonging to Gaussian, Inc.
  
 This software is provided under written license and may be
 used, copied, transmitted, or stored only in accord with that
 written license.
  
 The following legend is applicable only to US Government
 contracts under FAR:
  
                    RESTRICTED RIGHTS LEGEND
  
 Use, reproduction and disclosure by the US Government is
 subject to restrictions as set forth in subparagraphs (a)
 and (c) of the Commercial Computer Software - Restricted
 Rights clause in FAR 52.227-19.
  
 Gaussian, Inc.
 340 Quinnipiac St., Bldg. 40, Wallingford CT 06492
  
  
 ---------------------------------------------------------------
 Warning -- This program may not be used in any manner that
 competes with the business of Gaussian, Inc. or will provide
 assistance to any competitor of Gaussian, Inc.  The licensee
 of this program is prohibited from giving any competitor of
 Gaussian, Inc. access to this program.  By using this program,
 the user acknowledges that Gaussian, Inc. is engaged in the
 business of creating and licensing software in the field of
 computational chemistry and represents and warrants to the
 licensee that it is not a competitor of Gaussian, Inc. and that
 it will not use this program in any manner prohibited above.
 ---------------------------------------------------------------
  

 Cite this work as:
 Gaussian 16, Revision C.01,
 M. J. Frisch, G. W. Trucks, H. B. Schlegel, G. E. Scuseria, 
 M. A. Robb, J. R. Cheeseman, G. Scalmani, V. Barone, 
 G. A. Petersson, H. Nakatsuji, X. Li, M. Caricato, A. V. Marenich, 
 J. Bloino, B. G. Janesko, R. Gomperts, B. Mennucci, H. P. Hratchian, 
 J. V. Ortiz, A. F. Izmaylov, J. L. Sonnenberg, D. Williams-Young, 
 F. Ding, F. Lipparini, F. Egidi, J. Goings, B. Peng, A. Petrone, 
 T. Henderson, D. Ranasinghe, V. G. Zakrzewski, J. Gao, N. Rega, 
 G. Zheng, W. Liang, M. Hada, M. Ehara, K. Toyota, R. Fukuda, 
 J. Hasegawa, M. Ishida, T. Nakajima, Y. Honda, O. Kitao, H. Nakai, 
 T. Vreven, K. Throssell, J. A. Montgomery, Jr., J. E. Peralta, 
 F. Ogliaro, M. J. Bearpark, J. J. Heyd, E. N. Brothers, K. N. Kudin, 
 V. N. Staroverov, T. A. Keith, R. Kobayashi, J. Normand, 
 K. Raghavachari, A. P. Rendell, J. C. Burant, S. S. Iyengar, 
 J. Tomasi, M. Cossi, J. M. Millam, M. Klene, C. Adamo, R. Cammi, 
 J. W. Ochterski, R. L. Martin, K. Morokuma, O. Farkas, 
 J. B. Foresman, and D. J. Fox, Gaussian, Inc., Wallingford CT, 2019.
 
 ******************************************
 Gaussian 16:  ES64L-G16RevC.01  3-Jul-2019
                17-Oct-2024 
 ******************************************
 %chk=N-1.chk
 ------------------------------
 #P B3LYP/6-31G* em=gd3 out=wfn
 ------------------------------
 1/38=1,172=1/1;
 2/12=2,17=6,18=5,40=1/2;
 3/5=1,6=6,7=1,11=2,25=1,30=1,74=-5,124=31/1,2,3;
 4//1;
 5/5=2,38=5/2;
 6/7=2,8=2,9=2,10=2,28=1/1;
 99/5=1,6=100,9=1/99;
 Leave Link    1 at Thu Oct 17 10:21:25 2024, MaxMem=           0 cpu:               0.4 elap:               0.0
 (Enter /home/zengyun1/App/g16/l101.exe)
 -------------------
 Title Card Required
 -------------------
 Symbolic Z-matrix:
 Charge =  1 Multiplicity = 2
 C                    -1.07535  -2.12639  -0.00102 
 C                    -0.04815  -1.46874  -0.00171 
 C                     1.11754  -0.68058   0.00687 
 C                     1.12696   0.68058  -0.00463 
 C                    -0.04951   1.46884  -0.00313 
 C                    -1.07149   2.12629   0.00363 
 N                    -2.23518  -2.78601  -0.02964 
 H                     2.07227  -1.20446   0.01878 
 H                     2.0854    1.19516  -0.01388 
 C                    -2.33172   2.87434   0.0377 
 C                    -2.34617  -4.09975   0.65114 
 C                    -3.48144  -1.98784   0.08127 
 C                    -3.52945   1.93457  -0.21649 
 H                    -2.31363   3.62181  -0.77028 
 C                    -2.49557   3.62972   1.37336 
 C                    -3.6968   -4.12022   1.37984 
 H                    -2.3055   -4.91177  -0.08411 
 H                    -1.52148  -4.22607   1.36235 
 C                    -4.62634  -2.87418  -0.4148 
 C                    -3.71317  -1.61637   1.55498 
 H                    -3.37673  -1.10568  -0.55405 
 H                    -3.42246   1.4108   -1.172 
 H                    -4.4662    2.50398  -0.23504 
 H                    -3.59715   1.18472   0.57976 
 H                    -1.65758   4.31237   1.54607 
 H                    -3.42448   4.21226   1.36859 
 H                    -2.53458   2.92222   2.20919 
 O                    -4.75794  -4.03618   0.42096 
 C                    -3.79985  -2.94359   2.36472 
 H                    -3.8303   -5.08031   1.88619 
 H                    -5.57128  -2.31596  -0.38618 
 H                    -4.4399   -3.19288  -1.44875 
 H                    -4.63354  -1.02855   1.6489 
 H                    -2.8844   -0.98715   1.89647 
 H                    -2.9984   -3.0111    3.11052 
 H                    -4.752    -3.02032   2.89714 
 
 ITRead=  0  0  0  0  0  0  0  0  0  0  0  0  0  0  0  0  0  0  0  0
 ITRead=  0  0  0  0  0  0  0  0  0  0  0  0  0  0  0  0
 MicOpt= -1 -1 -1 -1 -1 -1 -1 -1 -1 -1 -1 -1 -1 -1 -1 -1 -1 -1 -1 -1
 MicOpt= -1 -1 -1 -1 -1 -1 -1 -1 -1 -1 -1 -1 -1 -1 -1 -1
 NAtoms=     36 NQM=       36 NQMF=       0 NMMI=      0 NMMIF=      0
                NMic=       0 NMicF=      0.
                    Isotopes and Nuclear Properties:
 (Nuclear quadrupole moments (NQMom) in fm**2, nuclear magnetic moments (NMagM)
  in nuclear magnetons)

  Atom         1           2           3           4           5           6           7           8           9          10
 IAtWgt=          12          12          12          12          12          12          14           1           1          12
 AtmWgt=  12.0000000  12.0000000  12.0000000  12.0000000  12.0000000  12.0000000  14.0030740   1.0078250   1.0078250  12.0000000
 NucSpn=           0           0           0           0           0           0           2           1           1           0
 AtZEff=  -0.0000000  -0.0000000  -0.0000000  -0.0000000  -0.0000000  -0.0000000  -0.0000000  -0.0000000  -0.0000000  -0.0000000
 NQMom=    0.0000000   0.0000000   0.0000000   0.0000000   0.0000000   0.0000000   2.0440000   0.0000000   0.0000000   0.0000000
 NMagM=    0.0000000   0.0000000   0.0000000   0.0000000   0.0000000   0.0000000   0.4037610   2.7928460   2.7928460   0.0000000
 AtZNuc=   6.0000000   6.0000000   6.0000000   6.0000000   6.0000000   6.0000000   7.0000000   1.0000000   1.0000000   6.0000000

  Atom        11          12          13          14          15          16          17          18          19          20
 IAtWgt=          12          12          12           1          12          12           1           1          12          12
 AtmWgt=  12.0000000  12.0000000  12.0000000   1.0078250  12.0000000  12.0000000   1.0078250   1.0078250  12.0000000  12.0000000
 NucSpn=           0           0           0           1           0           0           1           1           0           0
 AtZEff=  -0.0000000  -0.0000000  -0.0000000  -0.0000000  -0.0000000  -0.0000000  -0.0000000  -0.0000000  -0.0000000  -0.0000000
 NQMom=    0.0000000   0.0000000   0.0000000   0.0000000   0.0000000   0.0000000   0.0000000   0.0000000   0.0000000   0.0000000
 NMagM=    0.0000000   0.0000000   0.0000000   2.7928460   0.0000000   0.0000000   2.7928460   2.7928460   0.0000000   0.0000000
 AtZNuc=   6.0000000   6.0000000   6.0000000   1.0000000   6.0000000   6.0000000   1.0000000   1.0000000   6.0000000   6.0000000

  Atom        21          22          23          24          25          26          27          28          29          30
 IAtWgt=           1           1           1           1           1           1           1          16          12           1
 AtmWgt=   1.0078250   1.0078250   1.0078250   1.0078250   1.0078250   1.0078250   1.0078250  15.9949146  12.0000000   1.0078250
 NucSpn=           1           1           1           1           1           1           1           0           0           1
 AtZEff=  -0.0000000  -0.0000000  -0.0000000  -0.0000000  -0.0000000  -0.0000000  -0.0000000  -0.0000000  -0.0000000  -0.0000000
 NQMom=    0.0000000   0.0000000   0.0000000   0.0000000   0.0000000   0.0000000   0.0000000   0.0000000   0.0000000   0.0000000
 NMagM=    2.7928460   2.7928460   2.7928460   2.7928460   2.7928460   2.7928460   2.7928460   0.0000000   0.0000000   2.7928460
 AtZNuc=   1.0000000   1.0000000   1.0000000   1.0000000   1.0000000   1.0000000   1.0000000   8.0000000   6.0000000   1.0000000

  Atom        31          32          33          34          35          36
 IAtWgt=           1           1           1           1           1           1
 AtmWgt=   1.0078250   1.0078250   1.0078250   1.0078250   1.0078250   1.0078250
 NucSpn=           1           1           1           1           1           1
 AtZEff=  -0.0000000  -0.0000000  -0.0000000  -0.0000000  -0.0000000  -0.0000000
 NQMom=    0.0000000   0.0000000   0.0000000   0.0000000   0.0000000   0.0000000
 NMagM=    2.7928460   2.7928460   2.7928460   2.7928460   2.7928460   2.7928460
 AtZNuc=   1.0000000   1.0000000   1.0000000   1.0000000   1.0000000   1.0000000
 Leave Link  101 at Thu Oct 17 10:21:25 2024, MaxMem=  6710886400 cpu:               1.8 elap:               0.1
 (Enter /home/zengyun1/App/g16/l202.exe)
                          Input orientation:                          
 ---------------------------------------------------------------------
 Center     Atomic      Atomic             Coordinates (Angstroms)
 Number     Number       Type             X           Y           Z
 ---------------------------------------------------------------------
      1          6           0       -1.075347   -2.126391   -0.001024
      2          6           0       -0.048150   -1.468735   -0.001710
      3          6           0        1.117540   -0.680582    0.006873
      4          6           0        1.126959    0.680582   -0.004631
      5          6           0       -0.049512    1.468836   -0.003133
      6          6           0       -1.071490    2.126289    0.003625
      7          7           0       -2.235179   -2.786008   -0.029637
      8          1           0        2.072268   -1.204463    0.018781
      9          1           0        2.085399    1.195164   -0.013883
     10          6           0       -2.331724    2.874339    0.037702
     11          6           0       -2.346174   -4.099746    0.651142
     12          6           0       -3.481441   -1.987844    0.081272
     13          6           0       -3.529451    1.934568   -0.216492
     14          1           0       -2.313628    3.621811   -0.770276
     15          6           0       -2.495565    3.629719    1.373358
     16          6           0       -3.696799   -4.120221    1.379838
     17          1           0       -2.305496   -4.911773   -0.084114
     18          1           0       -1.521478   -4.226075    1.362345
     19          6           0       -4.626342   -2.874175   -0.414804
     20          6           0       -3.713167   -1.616369    1.554982
     21          1           0       -3.376727   -1.105676   -0.554050
     22          1           0       -3.422462    1.410800   -1.171998
     23          1           0       -4.466198    2.503975   -0.235041
     24          1           0       -3.597152    1.184718    0.579759
     25          1           0       -1.657577    4.312373    1.546073
     26          1           0       -3.424481    4.212260    1.368585
     27          1           0       -2.534579    2.922218    2.209189
     28          8           0       -4.757941   -4.036183    0.420962
     29          6           0       -3.799848   -2.943586    2.364717
     30          1           0       -3.830297   -5.080308    1.886194
     31          1           0       -5.571278   -2.315957   -0.386179
     32          1           0       -4.439901   -3.192885   -1.448752
     33          1           0       -4.633538   -1.028548    1.648903
     34          1           0       -2.884402   -0.987149    1.896465
     35          1           0       -2.998402   -3.011104    3.110525
     36          1           0       -4.751997   -3.020320    2.897135
 ---------------------------------------------------------------------
                    Distance matrix (angstroms):
                    1          2          3          4          5
     1  C    0.000000
     2  C    1.219691   0.000000
     3  C    2.626629   1.407157   0.000000
     4  C    3.567809   2.449582   1.361245   0.000000
     5  C    3.738716   2.937572   2.445835   1.416132   0.000000
     6  C    4.252684   3.737840   3.559549   2.631219   1.215207
     7  N    1.334587   2.553250   3.959151   4.829269   4.783465
     8  H    3.279912   2.136921   1.089082   2.108922   3.413057
     9  H    4.585107   3.412995   2.110830   1.087882   2.152407
    10  C    5.156286   4.906990   4.953366   4.095955   2.680597
    11  C    2.436073   3.553780   4.909489   5.945101   6.059029
    12  C    2.411484   3.473305   4.781746   5.325902   4.871745
    13  C    4.749783   4.873198   5.336987   4.826958   3.517443
    14  H    5.930170   5.624655   5.557649   4.590717   3.217146
    15  C    6.085947   5.820214   5.787962   4.870210   3.542219
    16  C    3.571295   4.717170   6.074044   6.945006   6.815634
    17  H    3.046067   4.117877   5.443200   6.562202   6.768175
    18  H    2.542928   3.410904   4.623012   5.740917   6.038479
    19  C    3.652391   4.806844   6.162941   6.775324   6.322863
    20  C    3.104734   3.984650   5.158301   5.579892   5.036723
    21  H    2.577605   3.393570   4.549041   4.876040   4.242874
    22  H    4.403618   4.587731   5.135682   4.753230   3.570211
    23  H    5.743947   5.946093   6.432578   5.887381   4.542291
    24  H    4.202410   4.469266   5.102535   4.786741   3.606416
    25  H    6.647570   6.197346   5.916081   4.832001   3.615469
    26  H    6.897301   6.749150   6.813525   5.922337   4.560526
    27  H    5.701127   5.509163   5.582861   4.830403   3.630736
    28  O    4.169757   5.380759   6.778850   7.553876   7.256335
    29  C    3.699655   4.674441   5.904348   6.559103   6.256293
    30  H    4.458359   5.559881   6.882625   7.831824   7.794561
    31  H    4.516379   5.600941   6.897045   7.347871   6.705317
    32  H    3.814911   4.934987   6.270220   6.933914   6.564828
    33  H    4.072867   4.893268   5.991013   6.232064   5.475349
    34  H    2.858499   3.446639   4.436224   4.741994   4.204395
    35  H    3.763322   4.557290   5.657293   6.352271   6.201668
    36  H    4.766150   5.739067   6.948342   7.528549   7.118809
                    6          7          8          9         10
     6  C    0.000000
     7  N    5.048360   0.000000
     8  H    4.580104   4.588870   0.000000
     9  H    3.291390   5.875149   2.399885   0.000000
    10  C    1.465923   5.661571   6.002677   4.725808   0.000000
    11  C    6.388083   1.483808   5.320261   6.936654   7.001027
    12  C    4.768646   1.484094   5.609035   6.413291   4.996456
    13  C    2.475233   4.898356   6.425584   5.666949   1.543481
    14  H    2.092466   6.450957   6.568989   5.080569   1.100850
    15  C    2.482833   6.572499   6.787436   5.369984   1.543185
    16  C    6.914123   2.429625   6.605774   7.976816   7.251802
    17  H    7.145963   2.127625   5.737556   7.521939   7.787109
    18  H    6.511616   2.126212   4.883678   6.655329   7.268222
    19  C    6.149528   2.423590   6.917175   7.859245   6.206081
    20  C    4.836595   2.462422   6.000070   6.632452   4.937305
    21  H    4.008830   2.098013   5.479912   5.951510   4.157249
    22  H    2.724167   4.508639   6.200775   5.632429   2.189756
    23  H    3.423982   5.744872   7.521202   6.684708   2.183469
    24  H    2.756348   4.241816   6.177799   5.713485   2.179439
    25  H    2.738906   7.294073   6.832265   5.114716   2.190342
    26  H    3.427967   7.235000   7.834354   6.432174   2.180688
    27  H    2.763810   6.138878   6.561282   5.410080   2.181467
    28  O    7.193063   2.851369   7.404873   8.624812   7.334080
    29  C    6.222727   2.864603   6.558179   7.577805   6.435731
    30  H    7.942929   3.388012   7.304086   8.831042   8.302954
    31  H    6.335108   3.387865   7.734546   8.431564   6.132989
    32  H    6.461362   2.653344   6.965330   7.993332   6.592811
    33  H    5.034692   3.414424   6.903338   7.270066   4.809038
    34  H    4.069765   2.714268   5.304856   5.754202   4.321058
    35  H    6.305444   3.239413   6.207618   7.300661   6.672716
    36  H    6.957450   3.867204   7.625802   8.543671   6.984346
                   11         12         13         14         15
    11  C    0.000000
    12  C    2.464490   0.000000
    13  C    6.210143   3.933991   0.000000
    14  H    7.851365   5.792853   2.152136   0.000000
    15  C    7.764570   5.847944   2.543635   2.151355   0.000000
    16  C    1.534798   2.505930   6.263924   8.153233   7.842485
    17  H    1.096195   3.155877   6.956147   8.561130   8.667032
    18  H    1.096308   3.239179   6.669198   8.170978   7.915963
    19  C    2.799541   1.530514   4.936244   6.904552   7.073781
    20  C    2.975358   1.537372   3.972534   5.899497   5.388597
    21  H    3.388065   1.092163   3.062736   4.850368   5.187997
    22  H    5.903249   3.622837   1.094884   2.505886   3.501653
    23  H    6.992064   4.609364   1.096386   2.483866   2.781662
    24  H    5.430985   3.213569   1.095844   3.067483   2.796663
    25  H    8.487568   6.720480   3.502071   2.504546   1.094564
    26  H    8.412307   6.332591   2.776935   2.481401   1.096477
    27  H    7.195206   5.434454   2.801634   3.068462   1.095761
    28  O    2.423560   2.437321   6.129062   8.126413   8.049314
    29  C    2.527096   2.495786   5.525590   7.425730   6.774385
    30  H    2.165520   3.597607   7.329412   9.224098   8.826612
    31  H    3.828738   2.166469   4.718561   6.783576   6.921491
    32  H    3.100910   2.170655   5.351463   7.170875   7.634964
    33  H    3.957249   2.169111   3.671343   5.732386   5.132865
    34  H    3.395406   2.157028   3.662937   5.355353   4.662650
    35  H    2.767509   3.233692   5.984206   7.715251   6.882668
    36  H    3.463759   3.257208   5.978311   7.969533   7.185847
                   16         17         18         19         20
    16  C    0.000000
    17  H    2.169201   0.000000
    18  H    2.177965   1.782445   0.000000
    19  C    2.374325   3.106041   3.824405   0.000000
    20  C    2.510024   3.940541   3.413382   2.509187   0.000000
    21  H    3.595810   3.981802   4.105047   2.169911   2.195909
    22  H    6.097485   6.511992   6.466142   4.514829   4.084689
    23  H    6.861471   7.725589   7.517752   5.383536   4.555049
    24  H    5.365858   6.267081   5.847867   4.303835   2.968267
    25  H    8.677252   9.389472   8.541509   8.019045   6.274991
    26  H    8.336937   9.306473   8.650258   7.405573   5.838750
    27  H    7.185717   8.165974   7.269224   6.697685   4.734536
    28  O    1.432665   2.652592   3.375937   1.437388   2.869330
    29  C    1.537880   3.479026   2.800089   2.900629   1.557141
    30  H    1.093611   2.497105   2.516898   3.285621   3.481709
    31  H    3.144496   4.182683   4.806950   1.097876   2.776708
    32  H    3.068073   3.061453   4.181739   1.097900   3.469289
    33  H    3.241654   4.847944   4.471153   2.768624   1.096101
    34  H    3.277657   4.434016   3.554362   3.455023   1.095162
    35  H    2.170985   3.781320   2.591060   3.885471   2.208141
    36  H    2.150678   4.295440   3.774345   3.317542   2.202640
                   21         22         23         24         25
    21  H    0.000000
    22  H    2.591641   0.000000
    23  H    3.783952   1.778287   0.000000
    24  H    2.565154   1.774903   1.777520   0.000000
    25  H    6.059806   4.349926   3.785634   3.804989   0.000000
    26  H    5.655020   3.781897   2.564182   3.133380   1.778616
    27  H    4.956676   3.808562   3.143301   2.608258   1.772396
    28  O    3.383234   5.830150   6.579447   5.350743   8.976442
    29  C    3.475075   5.622406   6.072782   4.502228   7.609760
    30  H    4.685959   7.187027   7.900972   6.404036   9.646702
    31  H    2.511775   4.373058   4.947301   4.133393   7.936335
    32  H    2.507443   4.722890   5.824775   4.897805   8.546298
    33  H    2.537425   3.921047   4.006990   2.667529   6.114929
    34  H    2.502290   3.931302   4.385584   2.637941   5.450946
    35  H    4.147637   6.170338   6.615386   4.936416   7.607801
    36  H    4.179463   6.161196   6.356889   4.938243   8.072744
                   26         27         28         29         30
    26  H    0.000000
    27  H    1.778412   0.000000
    28  O    8.409097   7.520667   0.000000
    29  C    7.234591   6.002729   2.426910   0.000000
    30  H    9.315816   8.113177   2.024259   2.189861   0.000000
    31  H    7.092641   6.587560   2.066923   3.331563   3.979489
    32  H    7.987781   7.375993   2.075604   3.874837   3.880187
    33  H    5.385765   4.508670   3.251028   2.207895   4.137422
    34  H    5.253970   3.937426   3.870900   2.210192   4.201044
    35  H    7.442640   6.019290   3.373502   1.096861   2.544139
    36  H    7.510591   6.379966   2.676461   1.093593   2.472869
                   31         32         33         34         35
    31  H    0.000000
    32  H    1.782716   0.000000
    33  H    2.584248   3.783823   0.000000
    34  H    3.767691   4.298293   1.767053   0.000000
    35  H    4.396574   4.785182   2.956440   2.362907   0.000000
    36  H    3.456516   4.360495   2.353566   2.936501   1.766555
                   36
    36  H    0.000000
 Stoichiometry    C15H19NO(1+,2)
 Framework group  C1[X(C15H19NO)]
 Deg. of freedom   102
 Full point group                 C1      NOp   1
 Largest Abelian subgroup         C1      NOp   1
 Largest concise Abelian subgroup C1      NOp   1
                         Standard orientation:                         
 ---------------------------------------------------------------------
 Center     Atomic      Atomic             Coordinates (Angstroms)
 Number     Number       Type             X           Y           Z
 ---------------------------------------------------------------------
      1          6           0        0.560458    1.669077   -0.293302
      2          6           0       -0.448431    2.332702   -0.121866
      3          6           0       -1.630839    3.067638    0.082759
      4          6           0       -2.880182    2.527415    0.099784
      5          6           0       -3.134188    1.144072   -0.065366
      6          6           0       -3.329447   -0.047309   -0.203980
      7          7           0        1.621394    0.890157   -0.514262
      8          1           0       -1.529543    4.141675    0.232036
      9          1           0       -3.731656    3.187816    0.249280
     10          6           0       -3.510841   -1.494546   -0.350721
     11          6           0        2.921550    1.229760    0.114984
     12          6           0        1.394818   -0.574977   -0.581957
     13          6           0       -2.196858   -2.164314   -0.805906
     14          1           0       -4.266582   -1.672259   -1.131197
     15          6           0       -4.029042   -2.126866    0.958118
     16          6           0        3.534698   -0.081498    0.625137
     17          1           0        3.588749    1.693217   -0.621017
     18          1           0        2.767202    1.931866    0.942702
     19          6           0        2.619504   -1.186191   -1.266818
     20          6           0        1.265713   -1.131986    0.845132
     21          1           0        0.495451   -0.751872   -1.175814
     22          1           0       -1.837288   -1.727928   -1.743481
     23          1           0       -2.347452   -3.239598   -0.958056
     24          1           0       -1.420210   -2.028953   -0.044743
     25          1           0       -4.971774   -1.667742    1.272017
     26          1           0       -4.193643   -3.202217    0.821048
     27          1           0       -3.299311   -1.987965    1.763657
     28          8           0        3.801567   -0.947307   -0.484676
     29          6           0        2.578934   -0.782187    1.605251
     30          1           0        4.506350    0.118108    1.085610
     31          1           0        2.486189   -2.270672   -1.373862
     32          1           0        2.753732   -0.750323   -2.265510
     33          1           0        1.100841   -2.214944    0.806973
     34          1           0        0.389089   -0.682184    1.323243
     35          1           0        2.382816   -0.129523    2.464712
     36          1           0        3.069659   -1.683900    1.982141
 ---------------------------------------------------------------------
 Rotational constants (GHZ):           0.6780905           0.2780465           0.2197571
 Leave Link  202 at Thu Oct 17 10:21:25 2024, MaxMem=  6710886400 cpu:               0.0 elap:               0.0
 (Enter /home/zengyun1/App/g16/l301.exe)
 Standard basis: 6-31G(d) (6D, 7F)
 Ernie: Thresh=  0.10000D-02 Tol=  0.10000D-05 Strict=F.
 There are   293 symmetry adapted cartesian basis functions of A   symmetry.
 There are   293 symmetry adapted basis functions of A   symmetry.
   293 basis functions,   552 primitive gaussians,   293 cartesian basis functions
    62 alpha electrons       61 beta electrons
       nuclear repulsion energy      1158.9140717127 Hartrees.
 IExCor=  402 DFT=T Ex+Corr=B3LYP ExCW=0 ScaHFX=  0.200000
 ScaDFX=  0.800000  0.720000  1.000000  0.810000 ScalE2=  1.000000  1.000000
 IRadAn=      5 IRanWt=     -1 IRanGd=            0 ICorTp=0 IEmpDi=131
 NAtoms=   36 NActive=   36 NUniq=   36 SFac= 1.00D+00 NAtFMM=   60 NAOKFM=F Big=F
 Integral buffers will be    131072 words long.
 Raffenetti 2 integral format.
 Two-electron integral symmetry is turned on.
 R6Disp:  Grimme-D3 Dispersion energy=       -0.0335511031 Hartrees.
 Nuclear repulsion after empirical dispersion term =     1158.8805206097 Hartrees.
 Leave Link  301 at Thu Oct 17 10:21:25 2024, MaxMem=  6710886400 cpu:               0.3 elap:               0.0
 (Enter /home/zengyun1/App/g16/l302.exe)
 NPDir=0 NMtPBC=     1 NCelOv=     1 NCel=       1 NClECP=     1 NCelD=      1
         NCelK=      1 NCelE2=     1 NClLst=     1 CellRange=     0.0.
 One-electron integrals computed using PRISM.
 One-electron integral symmetry used in STVInt
 NBasis=   293 RedAO= T EigKep=  1.11D-04  NBF=   293
 NBsUse=   293 1.00D-06 EigRej= -1.00D+00 NBFU=   293
 Precomputing XC quadrature grid using
 IXCGrd= 4 IRadAn=           5 IRanWt=          -1 IRanGd=           0 AccXCQ= 0.00D+00.
 Generated NRdTot=       0 NPtTot=           0 NUsed=           0 NTot=          32
 NSgBfM=   293   293   293   293   293 MxSgAt=    36 MxSgA2=    36.
 Leave Link  302 at Thu Oct 17 10:21:26 2024, MaxMem=  6710886400 cpu:               4.3 elap:               0.3
 (Enter /home/zengyun1/App/g16/l303.exe)
 DipDrv:  MaxL=1.
 Leave Link  303 at Thu Oct 17 10:21:26 2024, MaxMem=  6710886400 cpu:               0.4 elap:               0.0
 (Enter /home/zengyun1/App/g16/l401.exe)
 ExpMin= 1.61D-01 ExpMax= 5.48D+03 ExpMxC= 8.25D+02 IAcc=3 IRadAn=         5 AccDes= 0.00D+00
 Harris functional with IExCor=  402 and IRadAn=       5 diagonalized for initial guess.
 HarFok:  IExCor=  402 AccDes= 0.00D+00 IRadAn=         5 IDoV= 1 UseB2=F ITyADJ=14
 ICtDFT=  3500011 ScaDFX=  1.000000  1.000000  1.000000  1.000000
 FoFCou: FMM=F IPFlag=           0 FMFlag=      100000 FMFlg1=           0
         NFxFlg=           0 DoJE=T BraDBF=F KetDBF=T FulRan=T
         wScrn=  0.000000 ICntrl=       500 IOpCl=  0 I1Cent=   200000004 NGrid=           0
         NMat0=    1 NMatS0=      1 NMatT0=    0 NMatD0=    1 NMtDS0=    0 NMtDT0=    0
 Petite list used in FoFCou.
 Harris En= -712.673194545110    
 JPrj=0 DoOrth=F DoCkMO=F.
 Initial guess <Sx>= 0.0000 <Sy>= 0.0000 <Sz>= 0.5000 <S**2>= 0.7500 S= 0.5000
 Leave Link  401 at Thu Oct 17 10:21:27 2024, MaxMem=  6710886400 cpu:              20.7 elap:               1.4
 (Enter /home/zengyun1/App/g16/l502.exe)
 Integral symmetry usage will be decided dynamically.
 UHF open shell SCF:
 Using DIIS extrapolation, IDIIS=  1040.
 NGot=  6710886400 LenX=  6710706040 LenY=  6710619750
 Requested convergence on RMS density matrix=1.00D-08 within 128 cycles.
 Requested convergence on MAX density matrix=1.00D-06.
 Requested convergence on             energy=1.00D-06.
 No special actions if energy rises.
 Fock matrices will be formed incrementally for  20 cycles.
 Integral accuracy reduced to 1.0D-05 until final iterations.

 Cycle   1  Pass 0  IDiag  1:
 FoFJK:  IHMeth= 1 ICntrl=       0 DoSepK=F KAlg= 0 I1Cent=           0 FoldK=F
 IRaf= 820000000 NMat=       1 IRICut=       1 DoRegI=T DoRafI=F ISym2E= 0 IDoP0=0 IntGTp=1.
 FoFCou: FMM=F IPFlag=           0 FMFlag=      100000 FMFlg1=           0
         NFxFlg=           0 DoJE=F BraDBF=F KetDBF=F FulRan=T
         wScrn=  0.000000 ICntrl=         0 IOpCl=  1 I1Cent=           0 NGrid=           0
         NMat0=    1 NMatS0=      1 NMatT0=    0 NMatD0=    1 NMtDS0=    0 NMtDT0=    0
 Symmetry not used in FoFCou.
 E= -712.262767314218    
 DIIS: error= 3.10D-02 at cycle   1 NSaved=   1.
 NSaved= 1 IEnMin= 1 EnMin= -712.262767314218     IErMin= 1 ErrMin= 3.10D-02
 ErrMax= 3.10D-02  0.00D+00 EMaxC= 1.00D-01 BMatC= 1.46D+00 BMatP= 1.46D+00
 IDIUse=3 WtCom= 6.90D-01 WtEn= 3.10D-01
 Coeff-Com:  0.100D+01
 Coeff-En:   0.100D+01
 Coeff:      0.100D+01
 Gap=     0.244 Goal=   None    Shift=    0.000
 Gap=    -0.008 Goal=   None    Shift=    0.000
 GapD=   -0.008 DampG=0.250 DampE=0.500 DampFc=0.2500 IDamp=-1.
 Damping current iteration by 2.50D-01
 RMSDP=5.66D-03 MaxDP=2.15D-01              OVMax= 5.20D-01

 Cycle   2  Pass 0  IDiag  1:
 RMSU=  1.34D-03    CP:  9.79D-01
 E= -712.394267682586     Delta-E=       -0.131500368368 Rises=F Damp=T
 DIIS: error= 1.46D-02 at cycle   2 NSaved=   2.
 NSaved= 2 IEnMin= 2 EnMin= -712.394267682586     IErMin= 2 ErrMin= 1.46D-02
 ErrMax= 1.46D-02  0.00D+00 EMaxC= 1.00D-01 BMatC= 3.87D-01 BMatP= 1.46D+00
 IDIUse=3 WtCom= 8.54D-01 WtEn= 1.46D-01
 Coeff-Com: -0.658D+00 0.166D+01
 Coeff-En:   0.000D+00 0.100D+01
 Coeff:     -0.562D+00 0.156D+01
 Gap=     0.214 Goal=   None    Shift=    0.000
 Gap=     0.090 Goal=   None    Shift=    0.000
 RMSDP=3.74D-03 MaxDP=2.04D-01 DE=-1.32D-01 OVMax= 6.40D-01

 Cycle   3  Pass 0  IDiag  1:
 RMSU=  3.07D-03    CP:  9.00D-01  2.00D+00
 E= -712.544090511275     Delta-E=       -0.149822828690 Rises=F Damp=F
 DIIS: error= 2.10D-02 at cycle   3 NSaved=   3.
 NSaved= 3 IEnMin= 3 EnMin= -712.544090511275     IErMin= 2 ErrMin= 1.46D-02
 ErrMax= 2.10D-02  0.00D+00 EMaxC= 1.00D-01 BMatC= 3.52D-01 BMatP= 3.87D-01
 IDIUse=3 WtCom= 7.90D-01 WtEn= 2.10D-01
 Coeff-Com: -0.507D+00 0.108D+01 0.426D+00
 Coeff-En:   0.000D+00 0.000D+00 0.100D+01
 Coeff:     -0.400D+00 0.854D+00 0.546D+00
 Gap=     0.195 Goal=   None    Shift=    0.000
 Gap=     0.071 Goal=   None    Shift=    0.000
 RMSDP=2.29D-03 MaxDP=1.30D-01 DE=-1.50D-01 OVMax= 2.68D-01

 Cycle   4  Pass 0  IDiag  1:
 RMSU=  1.26D-03    CP:  9.26D-01  2.29D+00  4.17D-01
 E= -712.586872985479     Delta-E=       -0.042782474204 Rises=F Damp=F
 DIIS: error= 1.21D-02 at cycle   4 NSaved=   4.
 NSaved= 4 IEnMin= 4 EnMin= -712.586872985479     IErMin= 4 ErrMin= 1.21D-02
 ErrMax= 1.21D-02  0.00D+00 EMaxC= 1.00D-01 BMatC= 2.16D-01 BMatP= 3.52D-01
 IDIUse=3 WtCom= 8.79D-01 WtEn= 1.21D-01
 Coeff-Com: -0.132D+00 0.309D+00 0.409D+00 0.413D+00
 Coeff-En:   0.000D+00 0.000D+00 0.404D+00 0.596D+00
 Coeff:     -0.116D+00 0.272D+00 0.409D+00 0.436D+00
 Gap=     0.166 Goal=   None    Shift=    0.000
 Gap=     0.074 Goal=   None    Shift=    0.000
 RMSDP=9.88D-04 MaxDP=6.22D-02 DE=-4.28D-02 OVMax= 1.92D-01

 Cycle   5  Pass 0  IDiag  1:
 RMSU=  3.67D-04    CP:  9.20D-01  2.10D+00  6.26D-01  5.33D-01
 E= -712.645564872492     Delta-E=       -0.058691887013 Rises=F Damp=F
 DIIS: error= 1.90D-03 at cycle   5 NSaved=   5.
 NSaved= 5 IEnMin= 5 EnMin= -712.645564872492     IErMin= 5 ErrMin= 1.90D-03
 ErrMax= 1.90D-03  0.00D+00 EMaxC= 1.00D-01 BMatC= 5.41D-03 BMatP= 2.16D-01
 IDIUse=3 WtCom= 9.81D-01 WtEn= 1.90D-02
 Coeff-Com: -0.171D-01 0.456D-01 0.155D+00 0.212D+00 0.605D+00
 Coeff-En:   0.000D+00 0.000D+00 0.000D+00 0.000D+00 0.100D+01
 Coeff:     -0.168D-01 0.447D-01 0.152D+00 0.208D+00 0.613D+00
 Gap=     0.166 Goal=   None    Shift=    0.000
 Gap=     0.072 Goal=   None    Shift=    0.000
 RMSDP=2.33D-04 MaxDP=1.37D-02 DE=-5.87D-02 OVMax= 3.69D-02

 Cycle   6  Pass 0  IDiag  1:
 RMSU=  1.86D-04    CP:  9.20D-01  2.08D+00  6.29D-01  5.71D-01  6.49D-01
 E= -712.646071590679     Delta-E=       -0.000506718187 Rises=F Damp=F
 DIIS: error= 1.69D-03 at cycle   6 NSaved=   6.
 NSaved= 6 IEnMin= 6 EnMin= -712.646071590679     IErMin= 6 ErrMin= 1.69D-03
 ErrMax= 1.69D-03  0.00D+00 EMaxC= 1.00D-01 BMatC= 4.43D-03 BMatP= 5.41D-03
 IDIUse=3 WtCom= 9.83D-01 WtEn= 1.69D-02
 Coeff-Com:  0.901D-02-0.195D-01 0.189D-01 0.461D-01 0.484D+00 0.462D+00
 Coeff-En:   0.000D+00 0.000D+00 0.000D+00 0.000D+00 0.430D+00 0.570D+00
 Coeff:      0.886D-02-0.191D-01 0.185D-01 0.454D-01 0.483D+00 0.464D+00
 Gap=     0.164 Goal=   None    Shift=    0.000
 Gap=     0.072 Goal=   None    Shift=    0.000
 RMSDP=1.24D-04 MaxDP=8.71D-03 DE=-5.07D-04 OVMax= 2.10D-02

 Cycle   7  Pass 0  IDiag  1:
 RMSU=  7.86D-05    CP:  9.19D-01  2.09D+00  6.33D-01  5.76D-01  8.03D-01
                    CP:  6.15D-01
 E= -712.647281605549     Delta-E=       -0.001210014870 Rises=F Damp=F
 DIIS: error= 4.78D-04 at cycle   7 NSaved=   7.
 NSaved= 7 IEnMin= 7 EnMin= -712.647281605549     IErMin= 7 ErrMin= 4.78D-04
 ErrMax= 4.78D-04  0.00D+00 EMaxC= 1.00D-01 BMatC= 3.09D-04 BMatP= 4.43D-03
 IDIUse=3 WtCom= 9.95D-01 WtEn= 4.78D-03
 Coeff-Com:  0.299D-02-0.881D-02-0.952D-02-0.546D-02 0.219D+00 0.275D+00
 Coeff-Com:  0.527D+00
 Coeff-En:   0.000D+00 0.000D+00 0.000D+00 0.000D+00 0.000D+00 0.000D+00
 Coeff-En:   0.100D+01
 Coeff:      0.298D-02-0.876D-02-0.948D-02-0.543D-02 0.218D+00 0.274D+00
 Coeff:      0.529D+00
 Gap=     0.164 Goal=   None    Shift=    0.000
 Gap=     0.071 Goal=   None    Shift=    0.000
 RMSDP=4.17D-05 MaxDP=2.42D-03 DE=-1.21D-03 OVMax= 4.20D-03

 Cycle   8  Pass 0  IDiag  1:
 RMSU=  3.37D-05    CP:  9.19D-01  2.09D+00  6.31D-01  5.74D-01  8.45D-01
                    CP:  6.95D-01  8.83D-01
 E= -712.647367759219     Delta-E=       -0.000086153670 Rises=F Damp=F
 DIIS: error= 2.17D-04 at cycle   8 NSaved=   8.
 NSaved= 8 IEnMin= 8 EnMin= -712.647367759219     IErMin= 8 ErrMin= 2.17D-04
 ErrMax= 2.17D-04  0.00D+00 EMaxC= 1.00D-01 BMatC= 3.98D-05 BMatP= 3.09D-04
 IDIUse=3 WtCom= 9.98D-01 WtEn= 2.17D-03
 Coeff-Com: -0.307D-02 0.449D-02-0.853D-02-0.126D-01 0.142D-01 0.389D-01
 Coeff-Com:  0.254D+00 0.712D+00
 Coeff-En:   0.000D+00 0.000D+00 0.000D+00 0.000D+00 0.000D+00 0.000D+00
 Coeff-En:   0.000D+00 0.100D+01
 Coeff:     -0.306D-02 0.448D-02-0.851D-02-0.126D-01 0.142D-01 0.388D-01
 Coeff:      0.254D+00 0.713D+00
 Gap=     0.164 Goal=   None    Shift=    0.000
 Gap=     0.071 Goal=   None    Shift=    0.000
 RMSDP=2.25D-05 MaxDP=1.73D-03 DE=-8.62D-05 OVMax= 2.87D-03

 Cycle   9  Pass 0  IDiag  1:
 RMSU=  1.70D-05    CP:  9.19D-01  2.09D+00  6.31D-01  5.73D-01  8.55D-01
                    CP:  7.38D-01  1.03D+00  1.00D+00
 E= -712.647388042250     Delta-E=       -0.000020283031 Rises=F Damp=F
 DIIS: error= 1.15D-04 at cycle   9 NSaved=   9.
 NSaved= 9 IEnMin= 9 EnMin= -712.647388042250     IErMin= 9 ErrMin= 1.15D-04
 ErrMax= 1.15D-04  0.00D+00 EMaxC= 1.00D-01 BMatC= 1.39D-05 BMatP= 3.98D-05
 IDIUse=3 WtCom= 9.99D-01 WtEn= 1.15D-03
 Coeff-Com: -0.235D-02 0.434D-02-0.193D-02-0.352D-02-0.511D-01-0.633D-01
 Coeff-Com: -0.366D-01 0.384D+00 0.770D+00
 Coeff-En:   0.000D+00 0.000D+00 0.000D+00 0.000D+00 0.000D+00 0.000D+00
 Coeff-En:   0.000D+00 0.000D+00 0.100D+01
 Coeff:     -0.234D-02 0.434D-02-0.193D-02-0.351D-02-0.510D-01-0.632D-01
 Coeff:     -0.365D-01 0.384D+00 0.771D+00
 Gap=     0.164 Goal=   None    Shift=    0.000
 Gap=     0.072 Goal=   None    Shift=    0.000
 RMSDP=1.64D-05 MaxDP=9.09D-04 DE=-2.03D-05 OVMax= 2.72D-03

 Cycle  10  Pass 0  IDiag  1:
 RMSU=  9.78D-06    CP:  9.19D-01  2.09D+00  6.30D-01  5.75D-01  8.64D-01
                    CP:  7.61D-01  1.13D+00  1.24D+00  1.00D+00
 E= -712.647397555915     Delta-E=       -0.000009513666 Rises=F Damp=F
 DIIS: error= 4.13D-05 at cycle  10 NSaved=  10.
 NSaved=10 IEnMin=10 EnMin= -712.647397555915     IErMin=10 ErrMin= 4.13D-05
 ErrMax= 4.13D-05  0.00D+00 EMaxC= 1.00D-01 BMatC= 3.12D-06 BMatP= 1.39D-05
 IDIUse=1 WtCom= 1.00D+00 WtEn= 0.00D+00
 Coeff-Com:  0.532D-04 0.157D-03 0.153D-02 0.288D-02-0.272D-01-0.463D-01
 Coeff-Com: -0.103D+00-0.191D-01 0.358D+00 0.833D+00
 Coeff:      0.532D-04 0.157D-03 0.153D-02 0.288D-02-0.272D-01-0.463D-01
 Coeff:     -0.103D+00-0.191D-01 0.358D+00 0.833D+00
 Gap=     0.164 Goal=   None    Shift=    0.000
 Gap=     0.072 Goal=   None    Shift=    0.000
 RMSDP=9.97D-06 MaxDP=7.28D-04 DE=-9.51D-06 OVMax= 1.44D-03

 Initial convergence to 1.0D-05 achieved.  Increase integral accuracy.
 Cycle  11  Pass 1  IDiag  1:
 E= -712.647387109584     Delta-E=        0.000010446331 Rises=F Damp=F
 DIIS: error= 1.04D-04 at cycle   1 NSaved=   1.
 NSaved= 1 IEnMin= 1 EnMin= -712.647387109584     IErMin= 1 ErrMin= 1.04D-04
 ErrMax= 1.04D-04  0.00D+00 EMaxC= 1.00D-01 BMatC= 2.94D-06 BMatP= 2.94D-06
 IDIUse=3 WtCom= 9.99D-01 WtEn= 1.04D-03
 Coeff-Com:  0.100D+01
 Coeff-En:   0.100D+01
 Coeff:      0.100D+01
 Gap=     0.164 Goal=   None    Shift=    0.000
 Gap=     0.072 Goal=   None    Shift=    0.000
 RMSDP=9.97D-06 MaxDP=7.28D-04 DE= 1.04D-05 OVMax= 9.90D-04

 Cycle  12  Pass 1  IDiag  1:
 RMSU=  8.01D-05    CP:  1.00D+00
 E= -712.647387428487     Delta-E=       -0.000000318902 Rises=F Damp=F
 DIIS: error= 3.40D-05 at cycle   2 NSaved=   2.
 NSaved= 2 IEnMin= 2 EnMin= -712.647387428487     IErMin= 2 ErrMin= 3.40D-05
 ErrMax= 3.40D-05  0.00D+00 EMaxC= 1.00D-01 BMatC= 2.61D-06 BMatP= 2.94D-06
 IDIUse=1 WtCom= 1.00D+00 WtEn= 0.00D+00
 Coeff-Com:  0.480D+00 0.520D+00
 Coeff:      0.480D+00 0.520D+00
 Gap=     0.164 Goal=   None    Shift=    0.000
 Gap=     0.072 Goal=   None    Shift=    0.000
 RMSDP=4.83D-06 MaxDP=2.77D-04 DE=-3.19D-07 OVMax= 7.35D-04

 Cycle  13  Pass 1  IDiag  1:
 RMSU=  4.81D-06    CP:  1.00D+00  1.01D+00
 E= -712.647388044961     Delta-E=       -0.000000616474 Rises=F Damp=F
 DIIS: error= 1.95D-05 at cycle   3 NSaved=   3.
 NSaved= 3 IEnMin= 3 EnMin= -712.647388044961     IErMin= 3 ErrMin= 1.95D-05
 ErrMax= 1.95D-05  0.00D+00 EMaxC= 1.00D-01 BMatC= 6.21D-07 BMatP= 2.61D-06
 IDIUse=1 WtCom= 1.00D+00 WtEn= 0.00D+00
 Coeff-Com: -0.144D-01 0.315D+00 0.699D+00
 Coeff:     -0.144D-01 0.315D+00 0.699D+00
 Gap=     0.164 Goal=   None    Shift=    0.000
 Gap=     0.072 Goal=   None    Shift=    0.000
 RMSDP=2.12D-06 MaxDP=9.82D-05 DE=-6.16D-07 OVMax= 3.89D-04

 Cycle  14  Pass 1  IDiag  1:
 RMSU=  1.61D-06    CP:  1.00D+00  1.01D+00  7.48D-01
 E= -712.647388271187     Delta-E=       -0.000000226227 Rises=F Damp=F
 DIIS: error= 6.44D-06 at cycle   4 NSaved=   4.
 NSaved= 4 IEnMin= 4 EnMin= -712.647388271187     IErMin= 4 ErrMin= 6.44D-06
 ErrMax= 6.44D-06  0.00D+00 EMaxC= 1.00D-01 BMatC= 6.09D-08 BMatP= 6.21D-07
 IDIUse=1 WtCom= 1.00D+00 WtEn= 0.00D+00
 Coeff-Com: -0.334D-01 0.112D+00 0.309D+00 0.613D+00
 Coeff:     -0.334D-01 0.112D+00 0.309D+00 0.613D+00
 Gap=     0.164 Goal=   None    Shift=    0.000
 Gap=     0.072 Goal=   None    Shift=    0.000
 RMSDP=8.52D-07 MaxDP=6.59D-05 DE=-2.26D-07 OVMax= 1.21D-04

 Cycle  15  Pass 1  IDiag  1:
 RMSU=  8.00D-07    CP:  1.00D+00  1.01D+00  7.80D-01  1.15D+00
 E= -712.647388304817     Delta-E=       -0.000000033629 Rises=F Damp=F
 DIIS: error= 6.47D-06 at cycle   5 NSaved=   5.
 NSaved= 5 IEnMin= 5 EnMin= -712.647388304817     IErMin= 4 ErrMin= 6.44D-06
 ErrMax= 6.47D-06  0.00D+00 EMaxC= 1.00D-01 BMatC= 3.64D-08 BMatP= 6.09D-08
 IDIUse=1 WtCom= 1.00D+00 WtEn= 0.00D+00
 Coeff-Com: -0.150D-01-0.123D+00-0.235D+00 0.461D+00 0.911D+00
 Coeff:     -0.150D-01-0.123D+00-0.235D+00 0.461D+00 0.911D+00
 Gap=     0.164 Goal=   None    Shift=    0.000
 Gap=     0.072 Goal=   None    Shift=    0.000
 RMSDP=1.09D-06 MaxDP=9.17D-05 DE=-3.36D-08 OVMax= 1.47D-04

 Cycle  16  Pass 1  IDiag  1:
 RMSU=  5.39D-07    CP:  1.00D+00  1.01D+00  8.03D-01  1.71D+00  1.32D+00
 E= -712.647388332126     Delta-E=       -0.000000027310 Rises=F Damp=F
 DIIS: error= 4.20D-06 at cycle   6 NSaved=   6.
 NSaved= 6 IEnMin= 6 EnMin= -712.647388332126     IErMin= 6 ErrMin= 4.20D-06
 ErrMax= 4.20D-06  0.00D+00 EMaxC= 1.00D-01 BMatC= 2.87D-08 BMatP= 3.64D-08
 IDIUse=1 WtCom= 1.00D+00 WtEn= 0.00D+00
 Coeff-Com:  0.166D-02-0.171D+00-0.374D+00 0.151D+00 0.845D+00 0.548D+00
 Coeff:      0.166D-02-0.171D+00-0.374D+00 0.151D+00 0.845D+00 0.548D+00
 Gap=     0.164 Goal=   None    Shift=    0.000
 Gap=     0.072 Goal=   None    Shift=    0.000
 RMSDP=7.21D-07 MaxDP=5.36D-05 DE=-2.73D-08 OVMax= 1.07D-04

 Cycle  17  Pass 1  IDiag  1:
 RMSU=  2.41D-07    CP:  1.00D+00  1.01D+00  8.27D-01  2.07D+00  1.66D+00
                    CP:  6.25D-01
 E= -712.647388344668     Delta-E=       -0.000000012542 Rises=F Damp=F
 DIIS: error= 1.10D-06 at cycle   7 NSaved=   7.
 NSaved= 7 IEnMin= 7 EnMin= -712.647388344668     IErMin= 7 ErrMin= 1.10D-06
 ErrMax= 1.10D-06  0.00D+00 EMaxC= 1.00D-01 BMatC= 2.55D-09 BMatP= 2.87D-08
 IDIUse=1 WtCom= 1.00D+00 WtEn= 0.00D+00
 Coeff-Com:  0.265D-02-0.944D-01-0.209D+00 0.438D-01 0.434D+00 0.352D+00
 Coeff-Com:  0.470D+00
 Coeff:      0.265D-02-0.944D-01-0.209D+00 0.438D-01 0.434D+00 0.352D+00
 Coeff:      0.470D+00
 Gap=     0.164 Goal=   None    Shift=    0.000
 Gap=     0.072 Goal=   None    Shift=    0.000
 RMSDP=1.37D-07 MaxDP=8.57D-06 DE=-1.25D-08 OVMax= 1.37D-05

 Cycle  18  Pass 1  IDiag  1:
 RMSU=  8.30D-08    CP:  1.00D+00  1.01D+00  8.31D-01  2.11D+00  1.69D+00
                    CP:  6.94D-01  7.41D-01
 E= -712.647388345473     Delta-E=       -0.000000000804 Rises=F Damp=F
 DIIS: error= 2.39D-07 at cycle   8 NSaved=   8.
 NSaved= 8 IEnMin= 8 EnMin= -712.647388345473     IErMin= 8 ErrMin= 2.39D-07
 ErrMax= 2.39D-07  0.00D+00 EMaxC= 1.00D-01 BMatC= 1.60D-10 BMatP= 2.55D-09
 IDIUse=1 WtCom= 1.00D+00 WtEn= 0.00D+00
 Coeff-Com:  0.115D-02-0.274D-01-0.610D-01 0.916D-03 0.126D+00 0.114D+00
 Coeff-Com:  0.225D+00 0.621D+00
 Coeff:      0.115D-02-0.274D-01-0.610D-01 0.916D-03 0.126D+00 0.114D+00
 Coeff:      0.225D+00 0.621D+00
 Gap=     0.164 Goal=   None    Shift=    0.000
 Gap=     0.072 Goal=   None    Shift=    0.000
 RMSDP=4.18D-08 MaxDP=2.64D-06 DE=-8.04D-10 OVMax= 6.51D-06

 Cycle  19  Pass 1  IDiag  1:
 RMSU=  3.57D-08    CP:  1.00D+00  1.01D+00  8.33D-01  2.12D+00  1.70D+00
                    CP:  6.92D-01  8.03D-01  9.84D-01
 E= -712.647388345514     Delta-E=       -0.000000000042 Rises=F Damp=F
 DIIS: error= 2.02D-07 at cycle   9 NSaved=   9.
 NSaved= 9 IEnMin= 9 EnMin= -712.647388345514     IErMin= 9 ErrMin= 2.02D-07
 ErrMax= 2.02D-07  0.00D+00 EMaxC= 1.00D-01 BMatC= 8.52D-11 BMatP= 1.60D-10
 IDIUse=1 WtCom= 1.00D+00 WtEn= 0.00D+00
 Coeff-Com: -0.218D-03 0.165D-01 0.366D-01-0.211D-01-0.749D-01-0.504D-01
 Coeff-Com: -0.125D-01 0.472D+00 0.635D+00
 Coeff:     -0.218D-03 0.165D-01 0.366D-01-0.211D-01-0.749D-01-0.504D-01
 Coeff:     -0.125D-01 0.472D+00 0.635D+00
 Gap=     0.164 Goal=   None    Shift=    0.000
 Gap=     0.072 Goal=   None    Shift=    0.000
 RMSDP=3.29D-08 MaxDP=2.08D-06 DE=-4.16D-11 OVMax= 4.41D-06

 Cycle  20  Pass 1  IDiag  1:
 RMSU=  2.43D-08    CP:  1.00D+00  1.01D+00  8.32D-01  2.12D+00  1.71D+00
                    CP:  7.08D-01  8.22D-01  1.14D+00  7.51D-01
 E= -712.647388345545     Delta-E=       -0.000000000030 Rises=F Damp=F
 DIIS: error= 8.44D-08 at cycle  10 NSaved=  10.
 NSaved=10 IEnMin=10 EnMin= -712.647388345545     IErMin=10 ErrMin= 8.44D-08
 ErrMax= 8.44D-08  0.00D+00 EMaxC= 1.00D-01 BMatC= 1.65D-11 BMatP= 8.52D-11
 IDIUse=1 WtCom= 1.00D+00 WtEn= 0.00D+00
 Coeff-Com: -0.347D-03 0.153D-01 0.340D-01-0.132D-01-0.686D-01-0.518D-01
 Coeff-Com: -0.572D-01 0.131D+00 0.396D+00 0.615D+00
 Coeff:     -0.347D-03 0.153D-01 0.340D-01-0.132D-01-0.686D-01-0.518D-01
 Coeff:     -0.572D-01 0.131D+00 0.396D+00 0.615D+00
 Gap=     0.164 Goal=   None    Shift=    0.000
 Gap=     0.072 Goal=   None    Shift=    0.000
 RMSDP=1.27D-08 MaxDP=7.30D-07 DE=-3.05D-11 OVMax= 1.81D-06

 Cycle  21  Pass 1  IDiag  1:
 RMSU=  8.96D-09    CP:  1.00D+00  1.01D+00  8.32D-01  2.12D+00  1.72D+00
                    CP:  7.11D-01  8.38D-01  1.19D+00  9.10D-01  9.31D-01
 E= -712.647388345551     Delta-E=       -0.000000000006 Rises=F Damp=F
 DIIS: error= 4.11D-08 at cycle  11 NSaved=  11.
 NSaved=11 IEnMin=11 EnMin= -712.647388345551     IErMin=11 ErrMin= 4.11D-08
 ErrMax= 4.11D-08  0.00D+00 EMaxC= 1.00D-01 BMatC= 1.84D-12 BMatP= 1.65D-11
 IDIUse=1 WtCom= 1.00D+00 WtEn= 0.00D+00
 Coeff-Com: -0.140D-03 0.468D-02 0.104D-01-0.307D-02-0.203D-01-0.164D-01
 Coeff-Com: -0.267D-01-0.184D-01 0.972D-01 0.289D+00 0.683D+00
 Coeff:     -0.140D-03 0.468D-02 0.104D-01-0.307D-02-0.203D-01-0.164D-01
 Coeff:     -0.267D-01-0.184D-01 0.972D-01 0.289D+00 0.683D+00
 Gap=     0.164 Goal=   None    Shift=    0.000
 Gap=     0.072 Goal=   None    Shift=    0.000
 RMSDP=4.73D-09 MaxDP=2.51D-07 DE=-5.91D-12 OVMax= 4.49D-07

 SCF Done:  E(UB3LYP) =  -712.647388346     A.U. after   21 cycles
            NFock= 21  Conv=0.47D-08     -V/T= 2.0097
 <Sx>= 0.0000 <Sy>= 0.0000 <Sz>= 0.5000 <S**2>= 0.7666 S= 0.5083
 <L.S>=  0.00000000000    
 KE= 7.057896203402D+02 PE=-3.952319967795D+03 EE= 1.375002438500D+03
 Annihilation of the first spin contaminant:
 S**2 before annihilation     0.7666,   after     0.7501
 Leave Link  502 at Thu Oct 17 10:22:30 2024, MaxMem=  6710886400 cpu:             947.2 elap:              63.3
 (Enter /home/zengyun1/App/g16/l601.exe)
 Copying SCF densities to generalized density rwf, IOpCl= 1 IROHF=0.

 **********************************************************************

            Population analysis using the SCF Density.

 **********************************************************************

 Orbital symmetries:
 Alpha Orbitals:
       Occupied  (A) (A) (A) (A) (A) (A) (A) (A) (A) (A) (A) (A)
                 (A) (A) (A) (A) (A) (A) (A) (A) (A) (A) (A) (A)
                 (A) (A) (A) (A) (A) (A) (A) (A) (A) (A) (A) (A)
                 (A) (A) (A) (A) (A) (A) (A) (A) (A) (A) (A) (A)
                 (A) (A) (A) (A) (A) (A) (A) (A) (A) (A) (A) (A)
                 (A) (A)
       Virtual   (A) (A) (A) (A) (A) (A) (A) (A) (A) (A) (A) (A)
                 (A) (A) (A) (A) (A) (A) (A) (A) (A) (A) (A) (A)
                 (A) (A) (A) (A) (A) (A) (A) (A) (A) (A) (A) (A)
                 (A) (A) (A) (A) (A) (A) (A) (A) (A) (A) (A) (A)
                 (A) (A) (A) (A) (A) (A) (A) (A) (A) (A) (A) (A)
                 (A) (A) (A) (A) (A) (A) (A) (A) (A) (A) (A) (A)
                 (A) (A) (A) (A) (A) (A) (A) (A) (A) (A) (A) (A)
                 (A) (A) (A) (A) (A) (A) (A) (A) (A) (A) (A) (A)
                 (A) (A) (A) (A) (A) (A) (A) (A) (A) (A) (A) (A)
                 (A) (A) (A) (A) (A) (A) (A) (A) (A) (A) (A) (A)
                 (A) (A) (A) (A) (A) (A) (A) (A) (A) (A) (A) (A)
                 (A) (A) (A) (A) (A) (A) (A) (A) (A) (A) (A) (A)
                 (A) (A) (A) (A) (A) (A) (A) (A) (A) (A) (A) (A)
                 (A) (A) (A) (A) (A) (A) (A) (A) (A) (A) (A) (A)
                 (A) (A) (A) (A) (A) (A) (A) (A) (A) (A) (A) (A)
                 (A) (A) (A) (A) (A) (A) (A) (A) (A) (A) (A) (A)
                 (A) (A) (A) (A) (A) (A) (A) (A) (A) (A) (A) (A)
                 (A) (A) (A) (A) (A) (A) (A) (A) (A) (A) (A) (A)
                 (A) (A) (A) (A) (A) (A) (A) (A) (A) (A) (A) (A)
                 (A) (A) (A)
 Beta  Orbitals:
       Occupied  (A) (A) (A) (A) (A) (A) (A) (A) (A) (A) (A) (A)
                 (A) (A) (A) (A) (A) (A) (A) (A) (A) (A) (A) (A)
                 (A) (A) (A) (A) (A) (A) (A) (A) (A) (A) (A) (A)
                 (A) (A) (A) (A) (A) (A) (A) (A) (A) (A) (A) (A)
                 (A) (A) (A) (A) (A) (A) (A) (A) (A) (A) (A) (A)
                 (A)
       Virtual   (A) (A) (A) (A) (A) (A) (A) (A) (A) (A) (A) (A)
                 (A) (A) (A) (A) (A) (A) (A) (A) (A) (A) (A) (A)
                 (A) (A) (A) (A) (A) (A) (A) (A) (A) (A) (A) (A)
                 (A) (A) (A) (A) (A) (A) (A) (A) (A) (A) (A) (A)
                 (A) (A) (A) (A) (A) (A) (A) (A) (A) (A) (A) (A)
                 (A) (A) (A) (A) (A) (A) (A) (A) (A) (A) (A) (A)
                 (A) (A) (A) (A) (A) (A) (A) (A) (A) (A) (A) (A)
                 (A) (A) (A) (A) (A) (A) (A) (A) (A) (A) (A) (A)
                 (A) (A) (A) (A) (A) (A) (A) (A) (A) (A) (A) (A)
                 (A) (A) (A) (A) (A) (A) (A) (A) (A) (A) (A) (A)
                 (A) (A) (A) (A) (A) (A) (A) (A) (A) (A) (A) (A)
                 (A) (A) (A) (A) (A) (A) (A) (A) (A) (A) (A) (A)
                 (A) (A) (A) (A) (A) (A) (A) (A) (A) (A) (A) (A)
                 (A) (A) (A) (A) (A) (A) (A) (A) (A) (A) (A) (A)
                 (A) (A) (A) (A) (A) (A) (A) (A) (A) (A) (A) (A)
                 (A) (A) (A) (A) (A) (A) (A) (A) (A) (A) (A) (A)
                 (A) (A) (A) (A) (A) (A) (A) (A) (A) (A) (A) (A)
                 (A) (A) (A) (A) (A) (A) (A) (A) (A) (A) (A) (A)
                 (A) (A) (A) (A) (A) (A) (A) (A) (A) (A) (A) (A)
                 (A) (A) (A) (A)
 The electronic state is 2-A.
 Alpha  occ. eigenvalues --  -19.27291 -14.57627 -10.40704 -10.38852 -10.38409
 Alpha  occ. eigenvalues --  -10.38210 -10.38118 -10.37423 -10.37328 -10.36380
 Alpha  occ. eigenvalues --  -10.35237 -10.34408 -10.33698 -10.32930 -10.31403
 Alpha  occ. eigenvalues --  -10.30468 -10.29690  -1.17283  -1.13173  -0.99166
 Alpha  occ. eigenvalues --   -0.95313  -0.94332  -0.92994  -0.91567  -0.87835
 Alpha  occ. eigenvalues --   -0.84785  -0.80744  -0.79708  -0.78713  -0.77351
 Alpha  occ. eigenvalues --   -0.73973  -0.72505  -0.68402  -0.65708  -0.65407
 Alpha  occ. eigenvalues --   -0.63944  -0.62995  -0.61555  -0.60366  -0.57701
 Alpha  occ. eigenvalues --   -0.57359  -0.56583  -0.56168  -0.55441  -0.54179
 Alpha  occ. eigenvalues --   -0.53809  -0.53650  -0.52777  -0.51735  -0.50980
 Alpha  occ. eigenvalues --   -0.50271  -0.49410  -0.47863  -0.47231  -0.47125
 Alpha  occ. eigenvalues --   -0.46547  -0.44526  -0.42865  -0.42093  -0.40810
 Alpha  occ. eigenvalues --   -0.37809  -0.36921
 Alpha virt. eigenvalues --   -0.20513  -0.13156  -0.09570  -0.07101  -0.06563
 Alpha virt. eigenvalues --   -0.03530  -0.02741  -0.01927  -0.00745  -0.00373
 Alpha virt. eigenvalues --    0.00384   0.00686   0.01520   0.01973   0.02583
 Alpha virt. eigenvalues --    0.03073   0.03371   0.03927   0.04143   0.04473
 Alpha virt. eigenvalues --    0.04714   0.05405   0.05696   0.06412   0.07139
 Alpha virt. eigenvalues --    0.07839   0.08111   0.09074   0.09314   0.10114
 Alpha virt. eigenvalues --    0.10329   0.10800   0.12001   0.14108   0.14314
 Alpha virt. eigenvalues --    0.16441   0.18527   0.19614   0.21944   0.25053
 Alpha virt. eigenvalues --    0.28310   0.32538   0.33091   0.34270   0.34904
 Alpha virt. eigenvalues --    0.37265   0.37997   0.38498   0.39082   0.39771
 Alpha virt. eigenvalues --    0.40141   0.41320   0.41939   0.42919   0.43694
 Alpha virt. eigenvalues --    0.43862   0.45935   0.46682   0.46852   0.48375
 Alpha virt. eigenvalues --    0.49407   0.50365   0.50840   0.52282   0.52555
 Alpha virt. eigenvalues --    0.54269   0.54972   0.56291   0.56447   0.58270
 Alpha virt. eigenvalues --    0.59432   0.60745   0.61629   0.63350   0.64319
 Alpha virt. eigenvalues --    0.66575   0.67285   0.67967   0.69025   0.70676
 Alpha virt. eigenvalues --    0.71992   0.72240   0.72599   0.72903   0.73202
 Alpha virt. eigenvalues --    0.73547   0.74171   0.74694   0.76022   0.76559
 Alpha virt. eigenvalues --    0.77334   0.78057   0.79038   0.79812   0.80439
 Alpha virt. eigenvalues --    0.81145   0.82028   0.82214   0.83719   0.84661
 Alpha virt. eigenvalues --    0.86360   0.87015   0.87548   0.89046   0.89734
 Alpha virt. eigenvalues --    0.91583   0.93754   0.94754   0.96730   0.98317
 Alpha virt. eigenvalues --    0.99270   1.02284   1.04744   1.07841   1.09474
 Alpha virt. eigenvalues --    1.13720   1.15669   1.18109   1.22036   1.22841
 Alpha virt. eigenvalues --    1.23445   1.24327   1.26150   1.28927   1.29336
 Alpha virt. eigenvalues --    1.34214   1.35397   1.36380   1.39020   1.39922
 Alpha virt. eigenvalues --    1.40964   1.42099   1.45102   1.45556   1.47094
 Alpha virt. eigenvalues --    1.48383   1.50314   1.51705   1.52648   1.55233
 Alpha virt. eigenvalues --    1.57497   1.57775   1.59450   1.62362   1.63315
 Alpha virt. eigenvalues --    1.65005   1.67265   1.68068   1.69548   1.69813
 Alpha virt. eigenvalues --    1.73156   1.74924   1.76037   1.77478   1.78483
 Alpha virt. eigenvalues --    1.79487   1.80354   1.81448   1.81852   1.84132
 Alpha virt. eigenvalues --    1.85891   1.86237   1.87636   1.88281   1.89427
 Alpha virt. eigenvalues --    1.90592   1.90784   1.92656   1.95664   1.96424
 Alpha virt. eigenvalues --    1.97573   1.98249   2.01549   2.05316   2.07037
 Alpha virt. eigenvalues --    2.09190   2.11457   2.13412   2.13890   2.15808
 Alpha virt. eigenvalues --    2.18408   2.19786   2.20381   2.23950   2.24975
 Alpha virt. eigenvalues --    2.26183   2.27510   2.30262   2.31065   2.33434
 Alpha virt. eigenvalues --    2.34576   2.35179   2.36961   2.39640   2.47644
 Alpha virt. eigenvalues --    2.48254   2.50339   2.51106   2.53028   2.56148
 Alpha virt. eigenvalues --    2.60236   2.60749   2.62938   2.65884   2.67174
 Alpha virt. eigenvalues --    2.71231   2.75422   2.80674   2.83451   2.86613
 Alpha virt. eigenvalues --    2.89379   3.08163   3.31251   3.42754   3.88010
 Alpha virt. eigenvalues --    3.90230   4.00402   4.04883   4.06014   4.17392
 Alpha virt. eigenvalues --    4.17857   4.19471   4.22053   4.32378   4.33034
 Alpha virt. eigenvalues --    4.40643   4.45373   4.49082   4.68772   4.82395
 Alpha virt. eigenvalues --    4.85979
  Beta  occ. eigenvalues --  -19.27283 -14.56988 -10.40673 -10.38502 -10.38413
  Beta  occ. eigenvalues --  -10.38219 -10.37779 -10.37406 -10.37335 -10.36369
  Beta  occ. eigenvalues --  -10.34914 -10.34422 -10.33756 -10.32885 -10.31403
  Beta  occ. eigenvalues --  -10.30465 -10.29657  -1.17016  -1.12414  -0.98461
  Beta  occ. eigenvalues --   -0.94869  -0.94057  -0.92811  -0.90907  -0.87421
  Beta  occ. eigenvalues --   -0.84352  -0.80694  -0.79370  -0.78539  -0.77235
  Beta  occ. eigenvalues --   -0.73810  -0.72223  -0.68149  -0.65568  -0.64735
  Beta  occ. eigenvalues --   -0.63695  -0.62770  -0.61350  -0.60052  -0.57555
  Beta  occ. eigenvalues --   -0.57237  -0.56431  -0.55712  -0.55294  -0.53710
  Beta  occ. eigenvalues --   -0.53613  -0.52963  -0.52638  -0.51174  -0.50631
  Beta  occ. eigenvalues --   -0.49630  -0.49063  -0.47498  -0.47160  -0.47013
  Beta  occ. eigenvalues --   -0.45465  -0.44129  -0.42794  -0.40641  -0.39971
  Beta  occ. eigenvalues --   -0.37516
  Beta virt. eigenvalues --   -0.30341  -0.18682  -0.12945  -0.09443  -0.06533
  Beta virt. eigenvalues --   -0.05583  -0.03202  -0.02567  -0.01721  -0.00611
  Beta virt. eigenvalues --   -0.00156   0.00564   0.01332   0.01611   0.02096
  Beta virt. eigenvalues --    0.02786   0.03266   0.03694   0.04047   0.04248
  Beta virt. eigenvalues --    0.04534   0.04858   0.05578   0.05980   0.06532
  Beta virt. eigenvalues --    0.07220   0.07968   0.08226   0.09151   0.09382
  Beta virt. eigenvalues --    0.10263   0.10451   0.11061   0.12165   0.14329
  Beta virt. eigenvalues --    0.14528   0.16561   0.18640   0.19762   0.22339
  Beta virt. eigenvalues --    0.25198   0.28546   0.32726   0.33269   0.34755
  Beta virt. eigenvalues --    0.35184   0.37603   0.38146   0.38811   0.39200
  Beta virt. eigenvalues --    0.40040   0.40458   0.41543   0.42474   0.43150
  Beta virt. eigenvalues --    0.43858   0.44199   0.46135   0.47003   0.47469
  Beta virt. eigenvalues --    0.48490   0.49579   0.50424   0.50991   0.52347
  Beta virt. eigenvalues --    0.52896   0.54388   0.55282   0.56446   0.56573
  Beta virt. eigenvalues --    0.58480   0.59662   0.60835   0.62025   0.63433
  Beta virt. eigenvalues --    0.64563   0.66683   0.67541   0.68167   0.69186
  Beta virt. eigenvalues --    0.70802   0.72069   0.72347   0.72873   0.73019
  Beta virt. eigenvalues --    0.73329   0.73672   0.74410   0.74877   0.76169
  Beta virt. eigenvalues --    0.76634   0.77413   0.78192   0.79111   0.79939
  Beta virt. eigenvalues --    0.80546   0.81352   0.82264   0.82461   0.83801
  Beta virt. eigenvalues --    0.85054   0.86519   0.87211   0.87759   0.89162
  Beta virt. eigenvalues --    0.89989   0.91964   0.94004   0.94965   0.96872
  Beta virt. eigenvalues --    0.98436   0.99462   1.02493   1.04968   1.08155
  Beta virt. eigenvalues --    1.09788   1.14156   1.15881   1.18559   1.22142
  Beta virt. eigenvalues --    1.23185   1.23942   1.24744   1.26568   1.29084
  Beta virt. eigenvalues --    1.29564   1.34652   1.35833   1.36993   1.39369
  Beta virt. eigenvalues --    1.40218   1.41493   1.42709   1.45550   1.46138
  Beta virt. eigenvalues --    1.47328   1.48794   1.50709   1.52025   1.52991
  Beta virt. eigenvalues --    1.55565   1.57702   1.57939   1.59791   1.62502
  Beta virt. eigenvalues --    1.63441   1.65079   1.67382   1.68601   1.69954
  Beta virt. eigenvalues --    1.70228   1.73473   1.75355   1.76394   1.77572
  Beta virt. eigenvalues --    1.79011   1.79884   1.80704   1.81759   1.82258
  Beta virt. eigenvalues --    1.84411   1.86099   1.86508   1.87860   1.88408
  Beta virt. eigenvalues --    1.89599   1.90866   1.90975   1.92978   1.95837
  Beta virt. eigenvalues --    1.96671   1.98268   1.98759   2.01804   2.05526
  Beta virt. eigenvalues --    2.07239   2.09428   2.11747   2.13442   2.14344
  Beta virt. eigenvalues --    2.15980   2.18609   2.20222   2.20488   2.24276
  Beta virt. eigenvalues --    2.25311   2.26326   2.27656   2.30473   2.31216
  Beta virt. eigenvalues --    2.33678   2.34706   2.35318   2.37168   2.39860
  Beta virt. eigenvalues --    2.47845   2.48957   2.50496   2.51620   2.53227
  Beta virt. eigenvalues --    2.56302   2.60400   2.60873   2.63065   2.65997
  Beta virt. eigenvalues --    2.67340   2.71529   2.76182   2.81061   2.83711
  Beta virt. eigenvalues --    2.87283   2.89717   3.08370   3.31586   3.43072
  Beta virt. eigenvalues --    3.88034   3.90733   4.00824   4.05107   4.06169
  Beta virt. eigenvalues --    4.17619   4.17949   4.19784   4.22084   4.32748
  Beta virt. eigenvalues --    4.33378   4.40810   4.45689   4.49404   4.69049
  Beta virt. eigenvalues --    4.82516   4.86284
          Condensed to atoms (all electrons):
               1          2          3          4          5          6
     1  C    5.924951   0.060887  -0.328383   0.014730  -0.005750  -0.002572
     2  C    0.060887   5.081825   0.487268  -0.001104  -0.014047  -0.003125
     3  C   -0.328383   0.487268   5.335530   0.426420  -0.009652   0.011788
     4  C    0.014730  -0.001104   0.426420   5.218261   0.459062  -0.222487
     5  C   -0.005750  -0.014047  -0.009652   0.459062   5.147022   0.397248
     6  C   -0.002572  -0.003125   0.011788  -0.222487   0.397248   5.469581
     7  N    0.367399  -0.148879  -0.000223   0.000043  -0.000053  -0.000001
     8  H    0.004445  -0.014821   0.348145  -0.035928   0.001260  -0.000230
     9  H   -0.000297   0.000927  -0.041514   0.352911  -0.013716   0.003835
    10  C    0.000001  -0.000070   0.000051   0.002069  -0.087194   0.384194
    11  C   -0.039016  -0.001556  -0.000079  -0.000000  -0.000001  -0.000001
    12  C   -0.041505  -0.000079   0.000076   0.000008   0.000032   0.000012
    13  C    0.000032   0.000022   0.000007   0.000084   0.001347  -0.041787
    14  H   -0.000001  -0.000000  -0.000000  -0.000192  -0.005363  -0.043657
    15  C   -0.000000   0.000001   0.000002  -0.000086  -0.001965  -0.036540
    16  C    0.000238  -0.000115   0.000001   0.000000  -0.000000  -0.000000
    17  H   -0.000874  -0.000300   0.000002   0.000000   0.000000   0.000000
    18  H    0.000563   0.004730   0.000059  -0.000000   0.000000   0.000000
    19  C    0.005759   0.000214   0.000001  -0.000000   0.000000   0.000001
    20  C   -0.003192   0.001889   0.000046   0.000001  -0.000066  -0.000102
    21  H   -0.001041   0.000887  -0.000036  -0.000010   0.000181   0.000199
    22  H    0.000004   0.000021   0.000000  -0.000023   0.000327  -0.001820
    23  H    0.000001   0.000001  -0.000000   0.000001   0.000122   0.005323
    24  H   -0.000039   0.000025   0.000003  -0.000074  -0.001923  -0.006897
    25  H    0.000000  -0.000000   0.000000  -0.000002   0.000195  -0.002309
    26  H    0.000000  -0.000000  -0.000000   0.000003   0.000250   0.005718
    27  H   -0.000001  -0.000001  -0.000000  -0.000068  -0.002330  -0.007948
    28  O    0.000843   0.000025   0.000000  -0.000000  -0.000000   0.000000
    29  C   -0.001697  -0.000411  -0.000004  -0.000000   0.000000   0.000000
    30  H    0.000020   0.000004  -0.000000  -0.000000  -0.000000  -0.000000
    31  H   -0.000112   0.000001  -0.000000   0.000000  -0.000000  -0.000000
    32  H    0.000151  -0.000007  -0.000000  -0.000000   0.000000   0.000000
    33  H   -0.000077  -0.000064  -0.000001   0.000000   0.000000  -0.000000
    34  H    0.006290   0.002799   0.000048  -0.000033   0.000226   0.000378
    35  H    0.000103   0.000067   0.000001  -0.000000  -0.000000  -0.000000
    36  H    0.000021   0.000002   0.000000   0.000000  -0.000000  -0.000000
               7          8          9         10         11         12
     1  C    0.367399   0.004445  -0.000297   0.000001  -0.039016  -0.041505
     2  C   -0.148879  -0.014821   0.000927  -0.000070  -0.001556  -0.000079
     3  C   -0.000223   0.348145  -0.041514   0.000051  -0.000079   0.000076
     4  C    0.000043  -0.035928   0.352911   0.002069  -0.000000   0.000008
     5  C   -0.000053   0.001260  -0.013716  -0.087194  -0.000001   0.000032
     6  C   -0.000001  -0.000230   0.003835   0.384194  -0.000001   0.000012
     7  N    7.094959   0.000007  -0.000000   0.000002   0.254301   0.265465
     8  H    0.000007   0.471395  -0.002946  -0.000000   0.000006  -0.000001
     9  H   -0.000000  -0.002946   0.470128  -0.000009   0.000000  -0.000000
    10  C    0.000002  -0.000000  -0.000009   5.025837  -0.000000   0.000032
    11  C    0.254301   0.000006   0.000000  -0.000000   5.111710  -0.047339
    12  C    0.265465  -0.000001  -0.000000   0.000032  -0.047339   5.018542
    13  C    0.000010  -0.000000  -0.000003   0.350571  -0.000000  -0.001498
    14  H    0.000000   0.000000   0.000005   0.385899  -0.000000  -0.000001
    15  C   -0.000000   0.000000   0.000002   0.352905   0.000000  -0.000002
    16  C   -0.039857  -0.000000  -0.000000   0.000000   0.329811   0.008901
    17  H   -0.036838  -0.000000  -0.000000   0.000000   0.369781   0.001203
    18  H   -0.041908  -0.000000  -0.000000   0.000000   0.356360   0.001876
    19  C   -0.046580   0.000000   0.000000   0.000000  -0.018591   0.341249
    20  C   -0.063277  -0.000000  -0.000000   0.000009  -0.014502   0.363784
    21  H   -0.038338   0.000001   0.000000  -0.000233   0.004183   0.369116
    22  H    0.000007   0.000000   0.000000  -0.029194   0.000000  -0.000839
    23  H   -0.000000   0.000000   0.000000  -0.027854   0.000000   0.000063
    24  H    0.000026   0.000000   0.000000  -0.028513  -0.000001  -0.001030
    25  H   -0.000000  -0.000000  -0.000002  -0.028804   0.000000   0.000000
    26  H    0.000000  -0.000000  -0.000000  -0.029384  -0.000000   0.000000
    27  H    0.000000   0.000000   0.000000  -0.028457  -0.000000  -0.000001
    28  O   -0.003857   0.000000  -0.000000  -0.000000  -0.043421  -0.035265
    29  C   -0.011815   0.000000   0.000000  -0.000000  -0.054259  -0.041254
    30  H    0.003354   0.000000   0.000000  -0.000000  -0.040160  -0.000183
    31  H    0.004128  -0.000000  -0.000000   0.000000  -0.000213  -0.029085
    32  H   -0.004145   0.000000   0.000000  -0.000000   0.001548  -0.036076
    33  H    0.004433  -0.000000  -0.000000   0.000002   0.000008  -0.026907
    34  H   -0.006733   0.000002   0.000000  -0.000022   0.000996  -0.034449
    35  H    0.000794  -0.000000  -0.000000   0.000000  -0.000723   0.001011
    36  H    0.000053  -0.000000  -0.000000  -0.000000   0.005158   0.001466
              13         14         15         16         17         18
     1  C    0.000032  -0.000001  -0.000000   0.000238  -0.000874   0.000563
     2  C    0.000022  -0.000000   0.000001  -0.000115  -0.000300   0.004730
     3  C    0.000007  -0.000000   0.000002   0.000001   0.000002   0.000059
     4  C    0.000084  -0.000192  -0.000086   0.000000   0.000000  -0.000000
     5  C    0.001347  -0.005363  -0.001965  -0.000000   0.000000   0.000000
     6  C   -0.041787  -0.043657  -0.036540  -0.000000   0.000000   0.000000
     7  N    0.000010   0.000000  -0.000000  -0.039857  -0.036838  -0.041908
     8  H   -0.000000   0.000000   0.000000  -0.000000  -0.000000  -0.000000
     9  H   -0.000003   0.000005   0.000002  -0.000000  -0.000000  -0.000000
    10  C    0.350571   0.385899   0.352905   0.000000   0.000000   0.000000
    11  C   -0.000000  -0.000000   0.000000   0.329811   0.369781   0.356360
    12  C   -0.001498  -0.000001  -0.000002   0.008901   0.001203   0.001876
    13  C    5.135373  -0.041568  -0.052665  -0.000001  -0.000000  -0.000000
    14  H   -0.041568   0.537784  -0.036706  -0.000000   0.000000  -0.000000
    15  C   -0.052665  -0.036706   5.100602  -0.000000  -0.000000   0.000000
    16  C   -0.000001  -0.000000  -0.000000   4.809233  -0.027864  -0.021271
    17  H   -0.000000   0.000000  -0.000000  -0.027864   0.497997  -0.027523
    18  H   -0.000000  -0.000000   0.000000  -0.021271  -0.027523   0.524823
    19  C    0.000007   0.000000  -0.000000  -0.040486   0.000799   0.000121
    20  C   -0.000599  -0.000001  -0.000005  -0.042718  -0.000195   0.000202
    21  H    0.003650   0.000004   0.000007   0.000446  -0.000152  -0.000134
    22  H    0.370857  -0.002860   0.004566  -0.000000  -0.000000  -0.000000
    23  H    0.370778  -0.002945  -0.003041   0.000000  -0.000000  -0.000000
    24  H    0.368599   0.004955  -0.004657   0.000000   0.000000   0.000000
    25  H    0.004624  -0.002971   0.374975   0.000000  -0.000000  -0.000000
    26  H   -0.003289  -0.003665   0.372960  -0.000000   0.000000  -0.000000
    27  H   -0.005578   0.004906   0.374934  -0.000000   0.000000  -0.000000
    28  O   -0.000000  -0.000000   0.000000   0.246470   0.000495   0.003030
    29  C    0.000028   0.000000  -0.000000   0.350355   0.005274  -0.000090
    30  H    0.000000   0.000000   0.000000   0.391003  -0.002761  -0.000751
    31  H    0.000009   0.000000   0.000000   0.002756   0.000020   0.000032
    32  H    0.000000  -0.000000   0.000000   0.000352  -0.000601  -0.000088
    33  H   -0.000076   0.000000  -0.000001   0.000623   0.000018   0.000004
    34  H   -0.000253   0.000002  -0.000008   0.001873   0.000001  -0.000075
    35  H   -0.000000  -0.000000   0.000000  -0.028285  -0.000060   0.001154
    36  H   -0.000000  -0.000000   0.000000  -0.025919  -0.000138  -0.000093
              19         20         21         22         23         24
     1  C    0.005759  -0.003192  -0.001041   0.000004   0.000001  -0.000039
     2  C    0.000214   0.001889   0.000887   0.000021   0.000001   0.000025
     3  C    0.000001   0.000046  -0.000036   0.000000  -0.000000   0.000003
     4  C   -0.000000   0.000001  -0.000010  -0.000023   0.000001  -0.000074
     5  C    0.000000  -0.000066   0.000181   0.000327   0.000122  -0.001923
     6  C    0.000001  -0.000102   0.000199  -0.001820   0.005323  -0.006897
     7  N   -0.046580  -0.063277  -0.038338   0.000007  -0.000000   0.000026
     8  H    0.000000  -0.000000   0.000001   0.000000   0.000000   0.000000
     9  H    0.000000  -0.000000   0.000000   0.000000   0.000000   0.000000
    10  C    0.000000   0.000009  -0.000233  -0.029194  -0.027854  -0.028513
    11  C   -0.018591  -0.014502   0.004183   0.000000   0.000000  -0.000001
    12  C    0.341249   0.363784   0.369116  -0.000839   0.000063  -0.001030
    13  C    0.000007  -0.000599   0.003650   0.370857   0.370778   0.368599
    14  H    0.000000  -0.000001   0.000004  -0.002860  -0.002945   0.004955
    15  C   -0.000000  -0.000005   0.000007   0.004566  -0.003041  -0.004657
    16  C   -0.040486  -0.042718   0.000446  -0.000000   0.000000   0.000000
    17  H    0.000799  -0.000195  -0.000152  -0.000000  -0.000000   0.000000
    18  H    0.000121   0.000202  -0.000134  -0.000000  -0.000000   0.000000
    19  C    4.883802  -0.045824  -0.028466   0.000015  -0.000001   0.000023
    20  C   -0.045824   5.110338  -0.036945   0.000029  -0.000016   0.001771
    21  H   -0.028466  -0.036945   0.534898   0.003351  -0.000093   0.001133
    22  H    0.000015   0.000029   0.003351   0.549983  -0.024690  -0.034030
    23  H   -0.000001  -0.000016  -0.000093  -0.024690   0.519904  -0.026024
    24  H    0.000023   0.001771   0.001133  -0.034030  -0.026024   0.564514
    25  H    0.000000   0.000000  -0.000000  -0.000163  -0.000021  -0.000017
    26  H    0.000000   0.000000  -0.000000  -0.000003   0.003219  -0.000258
    27  H    0.000000  -0.000011  -0.000001  -0.000014  -0.000173   0.005011
    28  O    0.242982  -0.005113   0.002344  -0.000000   0.000000  -0.000000
    29  C   -0.022586   0.334957   0.004815  -0.000000  -0.000000   0.000019
    30  H    0.005973   0.004655   0.000010  -0.000000   0.000000  -0.000000
    31  H    0.370732  -0.006122  -0.000798   0.000003  -0.000001   0.000012
    32  H    0.367788   0.005361  -0.000889  -0.000001   0.000000  -0.000003
    33  H   -0.003487   0.370560  -0.001365  -0.000011   0.000014   0.001386
    34  H    0.004633   0.368347  -0.003242  -0.000011   0.000004   0.001929
    35  H    0.000263  -0.031827  -0.000119   0.000000  -0.000000  -0.000001
    36  H    0.000894  -0.027556  -0.000148   0.000000   0.000000   0.000000
              25         26         27         28         29         30
     1  C    0.000000   0.000000  -0.000001   0.000843  -0.001697   0.000020
     2  C   -0.000000  -0.000000  -0.000001   0.000025  -0.000411   0.000004
     3  C    0.000000  -0.000000  -0.000000   0.000000  -0.000004  -0.000000
     4  C   -0.000002   0.000003  -0.000068  -0.000000  -0.000000  -0.000000
     5  C    0.000195   0.000250  -0.002330  -0.000000   0.000000  -0.000000
     6  C   -0.002309   0.005718  -0.007948   0.000000   0.000000  -0.000000
     7  N   -0.000000   0.000000   0.000000  -0.003857  -0.011815   0.003354
     8  H   -0.000000  -0.000000   0.000000   0.000000   0.000000   0.000000
     9  H   -0.000002  -0.000000   0.000000  -0.000000   0.000000   0.000000
    10  C   -0.028804  -0.029384  -0.028457  -0.000000  -0.000000  -0.000000
    11  C    0.000000  -0.000000  -0.000000  -0.043421  -0.054259  -0.040160
    12  C    0.000000   0.000000  -0.000001  -0.035265  -0.041254  -0.000183
    13  C    0.004624  -0.003289  -0.005578  -0.000000   0.000028   0.000000
    14  H   -0.002971  -0.003665   0.004906  -0.000000   0.000000   0.000000
    15  C    0.374975   0.372960   0.374934   0.000000  -0.000000   0.000000
    16  C    0.000000  -0.000000  -0.000000   0.246470   0.350355   0.391003
    17  H   -0.000000   0.000000   0.000000   0.000495   0.005274  -0.002761
    18  H   -0.000000  -0.000000  -0.000000   0.003030  -0.000090  -0.000751
    19  C    0.000000   0.000000   0.000000   0.242982  -0.022586   0.005973
    20  C    0.000000   0.000000  -0.000011  -0.005113   0.334957   0.004655
    21  H   -0.000000  -0.000000  -0.000001   0.002344   0.004815   0.000010
    22  H   -0.000163  -0.000003  -0.000014  -0.000000  -0.000000  -0.000000
    23  H   -0.000021   0.003219  -0.000173   0.000000  -0.000000   0.000000
    24  H   -0.000017  -0.000258   0.005011  -0.000000   0.000019  -0.000000
    25  H    0.524139  -0.024104  -0.027841   0.000000  -0.000000   0.000000
    26  H   -0.024104   0.521311  -0.026830  -0.000000  -0.000000   0.000000
    27  H   -0.027841  -0.026830   0.551161  -0.000000  -0.000000  -0.000000
    28  O    0.000000  -0.000000  -0.000000   8.222466  -0.050064  -0.034532
    29  C   -0.000000  -0.000000  -0.000000  -0.050064   5.143872  -0.040242
    30  H    0.000000   0.000000  -0.000000  -0.034532  -0.040242   0.526399
    31  H   -0.000000   0.000000   0.000000  -0.037137   0.001072  -0.000204
    32  H   -0.000000  -0.000000  -0.000000  -0.040104  -0.000421  -0.000126
    33  H   -0.000000   0.000000   0.000002  -0.000049  -0.025039  -0.000115
    34  H   -0.000000  -0.000000   0.000094  -0.000056  -0.030318  -0.000118
    35  H   -0.000000  -0.000000  -0.000000   0.003418   0.355285   0.000071
    36  H   -0.000000  -0.000000   0.000000   0.001003   0.372139  -0.003754
              31         32         33         34         35         36
     1  C   -0.000112   0.000151  -0.000077   0.006290   0.000103   0.000021
     2  C    0.000001  -0.000007  -0.000064   0.002799   0.000067   0.000002
     3  C   -0.000000  -0.000000  -0.000001   0.000048   0.000001   0.000000
     4  C    0.000000  -0.000000   0.000000  -0.000033  -0.000000   0.000000
     5  C   -0.000000   0.000000   0.000000   0.000226  -0.000000  -0.000000
     6  C   -0.000000   0.000000  -0.000000   0.000378  -0.000000  -0.000000
     7  N    0.004128  -0.004145   0.004433  -0.006733   0.000794   0.000053
     8  H   -0.000000   0.000000  -0.000000   0.000002  -0.000000  -0.000000
     9  H   -0.000000   0.000000  -0.000000   0.000000  -0.000000  -0.000000
    10  C    0.000000  -0.000000   0.000002  -0.000022   0.000000  -0.000000
    11  C   -0.000213   0.001548   0.000008   0.000996  -0.000723   0.005158
    12  C   -0.029085  -0.036076  -0.026907  -0.034449   0.001011   0.001466
    13  C    0.000009   0.000000  -0.000076  -0.000253  -0.000000  -0.000000
    14  H    0.000000  -0.000000   0.000000   0.000002  -0.000000  -0.000000
    15  C    0.000000   0.000000  -0.000001  -0.000008   0.000000   0.000000
    16  C    0.002756   0.000352   0.000623   0.001873  -0.028285  -0.025919
    17  H    0.000020  -0.000601   0.000018   0.000001  -0.000060  -0.000138
    18  H    0.000032  -0.000088   0.000004  -0.000075   0.001154  -0.000093
    19  C    0.370732   0.367788  -0.003487   0.004633   0.000263   0.000894
    20  C   -0.006122   0.005361   0.370560   0.368347  -0.031827  -0.027556
    21  H   -0.000798  -0.000889  -0.001365  -0.003242  -0.000119  -0.000148
    22  H    0.000003  -0.000001  -0.000011  -0.000011   0.000000   0.000000
    23  H   -0.000001   0.000000   0.000014   0.000004  -0.000000   0.000000
    24  H    0.000012  -0.000003   0.001386   0.001929  -0.000001   0.000000
    25  H   -0.000000  -0.000000  -0.000000  -0.000000  -0.000000  -0.000000
    26  H    0.000000  -0.000000   0.000000  -0.000000  -0.000000  -0.000000
    27  H    0.000000  -0.000000   0.000002   0.000094  -0.000000   0.000000
    28  O   -0.037137  -0.040104  -0.000049  -0.000056   0.003418   0.001003
    29  C    0.001072  -0.000421  -0.025039  -0.030318   0.355285   0.372139
    30  H   -0.000204  -0.000126  -0.000115  -0.000118   0.000071  -0.003754
    31  H    0.554633  -0.042598   0.002993   0.000058  -0.000052  -0.000274
    32  H   -0.042598   0.575839  -0.000050  -0.000179   0.000038   0.000026
    33  H    0.002993  -0.000050   0.522222  -0.029335   0.002855  -0.008391
    34  H    0.000058  -0.000179  -0.029335   0.556525  -0.009021   0.003014
    35  H   -0.000052   0.000038   0.002855  -0.009021   0.566850  -0.025990
    36  H   -0.000274   0.000026  -0.008391   0.003014  -0.025990   0.514222
          Atomic-Atomic Spin Densities.
               1          2          3          4          5          6
     1  C    0.001189   0.054236  -0.001011  -0.000547   0.000258  -0.000078
     2  C    0.054236   0.235863  -0.039582  -0.010842   0.002188   0.000500
     3  C   -0.001011  -0.039582  -0.016195   0.052216  -0.005054  -0.001029
     4  C   -0.000547  -0.010842   0.052216   0.285911  -0.040682  -0.008573
     5  C    0.000258   0.002188  -0.005054  -0.040682  -0.070386   0.038121
     6  C   -0.000078   0.000500  -0.001029  -0.008573   0.038121   0.219000
     7  N   -0.057171  -0.010153   0.000152   0.000021  -0.000010  -0.000008
     8  H    0.000195   0.000144   0.000883  -0.001409   0.000084   0.000009
     9  H    0.000003   0.000079   0.000082   0.000438  -0.000498  -0.000349
    10  C   -0.000004  -0.000005  -0.000003  -0.000007   0.001571  -0.006232
    11  C    0.001810   0.000016   0.000005   0.000000  -0.000000  -0.000000
    12  C    0.002494   0.000284  -0.000002  -0.000000   0.000001  -0.000001
    13  C   -0.000002   0.000001   0.000000   0.000008   0.000108  -0.001738
    14  H   -0.000000   0.000000   0.000000   0.000014  -0.000148  -0.003099
    15  C   -0.000000  -0.000002   0.000001   0.000022  -0.000402  -0.006454
    16  C    0.000325   0.000011  -0.000000  -0.000000   0.000000   0.000000
    17  H    0.000120   0.000025   0.000000   0.000000   0.000000   0.000000
    18  H    0.002025   0.000328  -0.000025  -0.000001   0.000000   0.000000
    19  C   -0.000021  -0.000001  -0.000000  -0.000000   0.000000   0.000000
    20  C    0.001852   0.000143  -0.000005  -0.000000   0.000003  -0.000003
    21  H    0.000210   0.000015  -0.000000  -0.000003   0.000004   0.000027
    22  H    0.000006   0.000001  -0.000001  -0.000006   0.000022   0.000492
    23  H   -0.000000  -0.000000   0.000000  -0.000000  -0.000001   0.000048
    24  H    0.000010   0.000014  -0.000001  -0.000003   0.000014   0.000247
    25  H    0.000000   0.000000  -0.000000  -0.000000   0.000013   0.000032
    26  H    0.000000   0.000000  -0.000000  -0.000000   0.000008   0.000355
    27  H    0.000000   0.000001  -0.000000  -0.000009   0.000061   0.000937
    28  O    0.000003   0.000000  -0.000000  -0.000000   0.000000   0.000000
    29  C   -0.000358  -0.000025   0.000001   0.000000  -0.000000   0.000000
    30  H   -0.000012  -0.000001   0.000000   0.000000  -0.000000  -0.000000
    31  H    0.000000  -0.000000  -0.000000   0.000000  -0.000000  -0.000000
[...]
  YYZ=              3.1788  XYZ=             -4.7273
 Hexadecapole moment (field-independent basis, Debye-Ang**3):
 XXXX=          -4035.4308 YYYY=          -1438.5081 ZZZZ=           -466.8975 XXXY=            123.7543
 XXXZ=             70.6092 YYYX=           -105.7092 YYYZ=             27.9501 ZZZX=             -5.7815
 ZZZY=              7.5761 XXYY=           -817.4303 XXZZ=           -774.8530 YYZZ=           -370.1218
 XXYZ=              7.6598 YYXZ=            -10.6687 ZZXY=              2.2794
 N-N= 1.158880520610D+03 E-N=-3.952319962975D+03  KE= 7.057896203402D+02
                          Isotropic Fermi Contact Couplings
        Atom                 a.u.       MegaHertz       Gauss      10(-4) cm-1
     1  C(13)             -0.01732     -19.46568      -6.94584      -6.49305
     2  C(13)              0.01493      16.78456       5.98915       5.59873
     3  C(13)             -0.01067     -11.99006      -4.27835      -3.99945
     4  C(13)              0.02798      31.45757      11.22484      10.49312
     5  C(13)             -0.01865     -20.96824      -7.48199      -6.99425
     6  C(13)              0.01817      20.42333       7.28755       6.81249
     7  N(14)              0.08329      26.91098       9.60251       8.97654
     8  H(1)               0.00045       2.03241       0.72521       0.67794
     9  H(1)              -0.00454     -20.29646      -7.24228      -6.77017
    10  C(13)             -0.00603      -6.78353      -2.42053      -2.26274
    11  C(13)             -0.00589      -6.61879      -2.36175      -2.20779
    12  C(13)             -0.00603      -6.77973      -2.41918      -2.26148
    13  C(13)              0.00099       1.10990       0.39604       0.37022
    14  H(1)               0.00515      23.01389       8.21193       7.67661
    15  C(13)              0.01081      12.14776       4.33462       4.05206
    16  C(13)              0.00104       1.17268       0.41844       0.39116
    17  H(1)               0.00811      36.26199      12.93918      12.09570
    18  H(1)               0.00305      13.61373       4.85772       4.54105
    19  C(13)              0.00356       4.00064       1.42753       1.33447
    20  C(13)              0.00633       7.12119       2.54102       2.37537
    21  H(1)               0.00107       4.77315       1.70318       1.59215
    22  H(1)              -0.00006      -0.26186      -0.09344      -0.08735
    23  H(1)               0.00002       0.10721       0.03826       0.03576
    24  H(1)               0.00003       0.14088       0.05027       0.04699
    25  H(1)              -0.00018      -0.81294      -0.29008      -0.27117
    26  H(1)               0.00102       4.54819       1.62291       1.51711
    27  H(1)              -0.00019      -0.84286      -0.30075      -0.28115
    28  O(17)              0.00060      -0.36470      -0.13013      -0.12165
    29  C(13)             -0.00104      -1.17340      -0.41870      -0.39140
    30  H(1)               0.00020       0.89921       0.32086       0.29994
    31  H(1)              -0.00021      -0.94542      -0.33735      -0.31536
    32  H(1)               0.00021       0.93929       0.33516       0.31331
    33  H(1)               0.00147       6.55852       2.34024       2.18769
    34  H(1)              -0.00039      -1.73659      -0.61966      -0.57926
    35  H(1)               0.00009       0.40011       0.14277       0.13346
    36  H(1)               0.00042       1.86869       0.66680       0.62333
 --------------------------------------------------------
       Center         ----  Spin Dipole Couplings  ----
                      3XX-RR        3YY-RR        3ZZ-RR
 --------------------------------------------------------
     1   Atom       -0.022749     -0.052722      0.075470
     2   Atom       -0.128944     -0.087798      0.216742
     3   Atom        0.004246     -0.010270      0.006024
     4   Atom       -0.132484     -0.135883      0.268367
     5   Atom       -0.028390      0.029899     -0.001509
     6   Atom       -0.106893     -0.123662      0.230555
     7   Atom       -0.304943     -0.286721      0.591663
     8   Atom        0.000382      0.004091     -0.004472
     9   Atom        0.009909     -0.006359     -0.003550
    10   Atom       -0.006248     -0.001469      0.007717
    11   Atom       -0.000392     -0.009814      0.010206
    12   Atom       -0.008392      0.005596      0.002796
    13   Atom       -0.000336      0.003085     -0.002749
    14   Atom       -0.000051      0.001874     -0.001824
    15   Atom       -0.007361      0.003151      0.004210
    16   Atom       -0.004297      0.005002     -0.000705
    17   Atom        0.007947     -0.003559     -0.004388
    18   Atom        0.001176     -0.000771     -0.000405
    19   Atom        0.000910      0.002885     -0.003795
    20   Atom       -0.016585     -0.005231      0.021816
    21   Atom        0.000525      0.003324     -0.003849
    22   Atom       -0.000056      0.001060     -0.001004
    23   Atom       -0.000575      0.001722     -0.001147
    24   Atom        0.000678      0.001792     -0.002470
    25   Atom        0.001261     -0.000286     -0.000974
    26   Atom       -0.001493      0.002656     -0.001163
    27   Atom       -0.001770      0.000713      0.001057
    28   Atom       -0.004658     -0.000687      0.005345
    29   Atom       -0.001069      0.000558      0.000511
    30   Atom        0.002425     -0.001218     -0.001207
    31   Atom       -0.000922      0.002253     -0.001332
    32   Atom       -0.001035      0.000772      0.000263
    33   Atom       -0.002574      0.004198     -0.001624
    34   Atom        0.000028      0.000793     -0.000821
    35   Atom       -0.000752     -0.000980      0.001731
    36   Atom        0.000001      0.000129     -0.000130
 --------------------------------------------------------
                        XY            XZ            YZ
 --------------------------------------------------------
     1   Atom       -0.034688     -0.025069     -0.013353
     2   Atom        0.007310     -0.009082     -0.123481
     3   Atom        0.001019     -0.000428     -0.011280
     4   Atom       -0.005270      0.041613     -0.050973
     5   Atom        0.012798      0.000887      0.005095
     6   Atom       -0.003622      0.017652     -0.045768
     7   Atom        0.039103     -0.166695     -0.210954
     8   Atom        0.004032      0.000577      0.002544
     9   Atom       -0.017789     -0.002879      0.000774
    10   Atom        0.000961      0.001318     -0.002426
    11   Atom       -0.001197      0.014147     -0.008436
    12   Atom        0.005405     -0.006668     -0.011724
    13   Atom       -0.001772     -0.000560      0.001189
    14   Atom        0.003029      0.002089      0.002206
    15   Atom        0.007132     -0.007368     -0.014495
    16   Atom       -0.006006      0.005408     -0.011726
    17   Atom        0.004276     -0.001641     -0.000262
    18   Atom        0.000859      0.003542      0.003462
    19   Atom       -0.006839     -0.004494      0.004698
    20   Atom        0.003917     -0.008349     -0.022741
    21   Atom        0.003531      0.001022      0.002662
    22   Atom       -0.000680     -0.000929      0.002053
    23   Atom       -0.000216     -0.000142      0.000693
    24   Atom       -0.000959      0.000032     -0.000171
    25   Atom        0.001623     -0.002590     -0.001201
    26   Atom        0.001233     -0.000274     -0.000225
    27   Atom        0.000799      0.000721     -0.002627
    28   Atom        0.000450     -0.004498     -0.010546
    29   Atom       -0.000215      0.000654     -0.003921
    30   Atom       -0.000421      0.001936     -0.000516
    31   Atom       -0.001278     -0.000503      0.001109
    32   Atom       -0.002626     -0.002395      0.003059
    33   Atom        0.000186     -0.000150     -0.000294
    34   Atom       -0.001387     -0.002055     -0.002935
    35   Atom       -0.000609      0.001338     -0.001236
    36   Atom       -0.001089      0.000964     -0.001292
 --------------------------------------------------------


 ---------------------------------------------------------------------------------
              Anisotropic Spin Dipole Couplings in Principal Axis System
 ---------------------------------------------------------------------------------

       Atom             a.u.   MegaHertz   Gauss  10(-4) cm-1        Axes

              Baa    -0.0796   -10.680    -3.811    -3.563  0.5649  0.8093  0.1610
     1 C(13)  Bbb    -0.0021    -0.282    -0.101    -0.094  0.7951 -0.5860  0.1561
              Bcc     0.0817    10.962     3.912     3.657 -0.2207 -0.0399  0.9745
 
              Baa    -0.1344   -18.040    -6.437    -6.018 -0.5964  0.7619  0.2525
     2 C(13)  Bbb    -0.1264   -16.960    -6.052    -5.657  0.8022  0.5547  0.2209
              Bcc     0.2608    35.001    12.489    11.675 -0.0282 -0.3343  0.9421
 
              Baa    -0.0161    -2.155    -0.769    -0.719 -0.0351  0.8903  0.4540
     3 C(13)  Bbb     0.0042     0.561     0.200     0.187  0.9933 -0.0190  0.1141
              Bcc     0.0119     1.595     0.569     0.532 -0.1102 -0.4550  0.8837
 
              Baa    -0.1422   -19.084    -6.810    -6.366  0.0186  0.9924  0.1213
     4 C(13)  Bbb    -0.1368   -18.352    -6.548    -6.121  0.9947 -0.0061 -0.1029
              Bcc     0.2790    37.435    13.358    12.487  0.1014 -0.1226  0.9873
 
              Baa    -0.0311    -4.170    -1.488    -1.391  0.9786 -0.2059  0.0061
     5 C(13)  Bbb    -0.0023    -0.305    -0.109    -0.102 -0.0361 -0.1423  0.9892
              Bcc     0.0334     4.475     1.597     1.493  0.2028  0.9682  0.1467
 
              Baa    -0.1296   -17.387    -6.204    -5.800  0.0626  0.9905  0.1228
     6 C(13)  Bbb    -0.1077   -14.458    -5.159    -4.823  0.9967 -0.0556 -0.0595
              Bcc     0.2373    31.845    11.363    10.622  0.0521 -0.1261  0.9906
 
              Baa    -0.3360   -12.959    -4.624    -4.323  0.7364 -0.6762 -0.0214
     7 N(14)  Bbb    -0.3338   -12.873    -4.593    -4.294  0.6541  0.7034  0.2782
              Bcc     0.6698    25.832     9.217     8.617 -0.1730 -0.2189  0.9603
 
              Baa    -0.0052    -2.794    -0.997    -0.932  0.1271 -0.3118  0.9416
     8 H(1)   Bbb    -0.0020    -1.044    -0.373    -0.348  0.8500 -0.4551 -0.2654
              Bcc     0.0072     3.838     1.370     1.280  0.5112  0.8341  0.2072
 
              Baa    -0.0178    -9.521    -3.397    -3.176  0.5432  0.8371  0.0641
     9 H(1)   Bbb    -0.0038    -2.034    -0.726    -0.678  0.0595 -0.1146  0.9916
              Bcc     0.0217    11.555     4.123     3.854  0.8375 -0.5349 -0.1121
 
              Baa    -0.0067    -0.894    -0.319    -0.298  0.9627 -0.2382 -0.1284
    10 C(13)  Bbb    -0.0017    -0.232    -0.083    -0.078  0.2608  0.9432  0.2058
              Bcc     0.0084     1.126     0.402     0.376  0.0721 -0.2316  0.9701
 
              Baa    -0.0147    -1.975    -0.705    -0.659 -0.4295  0.7529  0.4986
    11 C(13)  Bbb    -0.0072    -0.960    -0.343    -0.320  0.7311  0.6140 -0.2974
              Bcc     0.0219     2.935     1.047     0.979  0.5301 -0.2368  0.8142
 
              Baa    -0.0115    -1.543    -0.551    -0.515  0.9039  0.0075  0.4277
    12 C(13)  Bbb    -0.0072    -0.961    -0.343    -0.320 -0.3054  0.7113  0.6331
              Bcc     0.0187     2.504     0.894     0.835  0.2995  0.7029 -0.6452
 
              Baa    -0.0030    -0.403    -0.144    -0.134  0.0976 -0.1634  0.9817
    13 C(13)  Bbb    -0.0011    -0.146    -0.052    -0.049  0.9176  0.3968 -0.0251
              Bcc     0.0041     0.549     0.196     0.183 -0.3855  0.9032  0.1887
 
              Baa    -0.0032    -1.718    -0.613    -0.573 -0.4921 -0.0826  0.8666
    14 H(1)   Bbb    -0.0021    -1.141    -0.407    -0.380 -0.6666  0.6760 -0.3141
              Bcc     0.0054     2.859     1.020     0.954  0.5598  0.7323  0.3877
 
              Baa    -0.0110    -1.472    -0.525    -0.491  0.9351 -0.3234  0.1450
    15 C(13)  Bbb    -0.0108    -1.452    -0.518    -0.484  0.1246  0.6830  0.7197
              Bcc     0.0218     2.924     1.043     0.975 -0.3318 -0.6549  0.6790
 
              Baa    -0.0100    -1.344    -0.480    -0.448 -0.1752  0.5614  0.8088
    16 C(13)  Bbb    -0.0072    -0.969    -0.346    -0.323  0.9199  0.3861 -0.0687
              Bcc     0.0172     2.313     0.825     0.772 -0.3508  0.7320 -0.5841
 
              Baa    -0.0051    -2.725    -0.972    -0.909 -0.3287  0.8323 -0.4464
    17 H(1)   Bbb    -0.0044    -2.373    -0.847    -0.792 -0.0411  0.4596  0.8872
              Bcc     0.0096     5.098     1.819     1.701  0.9435  0.3100 -0.1169
 
              Baa    -0.0048    -2.543    -0.907    -0.848 -0.3605 -0.5654  0.7418
    18 H(1)   Bbb    -0.0007    -0.357    -0.127    -0.119 -0.6932  0.6946  0.1925
              Bcc     0.0054     2.900     1.035     0.967  0.6241  0.4448  0.6424
 
              Baa    -0.0066    -0.885    -0.316    -0.295  0.3888 -0.1684  0.9058
    19 C(13)  Bbb    -0.0050    -0.665    -0.237    -0.222  0.6917  0.7028 -0.1662
              Bcc     0.0116     1.551     0.553     0.517 -0.6086  0.6912  0.3897
 
              Baa    -0.0189    -2.534    -0.904    -0.845  0.7008  0.5518  0.4521
    20 C(13)  Bbb    -0.0175    -2.343    -0.836    -0.782  0.6925 -0.6784 -0.2456
              Bcc     0.0363     4.878     1.740     1.627 -0.1712 -0.4851  0.8575
 
              Baa    -0.0047    -2.526    -0.901    -0.843  0.0369 -0.3280  0.9440
    21 H(1)   Bbb    -0.0017    -0.928    -0.331    -0.309  0.8500 -0.4865 -0.2022
              Bcc     0.0065     3.454     1.232     1.152  0.5255  0.8098  0.2609
 
              Baa    -0.0024    -1.260    -0.449    -0.420  0.2058 -0.4732  0.8566
    22 H(1)   Bbb    -0.0004    -0.201    -0.072    -0.067  0.9097  0.4150  0.0107
              Bcc     0.0027     1.461     0.521     0.487 -0.3606  0.7771  0.5159
 
              Baa    -0.0013    -0.702    -0.251    -0.234  0.1239 -0.2122  0.9693
    23 H(1)   Bbb    -0.0006    -0.313    -0.112    -0.105  0.9875  0.1221 -0.0995
              Bcc     0.0019     1.016     0.362     0.339 -0.0973  0.9696  0.2247
 
              Baa    -0.0025    -1.322    -0.472    -0.441  0.0023  0.0406  0.9992
    24 H(1)   Bbb     0.0001     0.068     0.024     0.023  0.8673  0.4973 -0.0222
              Bcc     0.0023     1.254     0.447     0.418 -0.4978  0.8666 -0.0341
 
              Baa    -0.0027    -1.433    -0.511    -0.478  0.5284  0.0661  0.8464
    25 H(1)   Bbb    -0.0012    -0.664    -0.237    -0.221 -0.3985  0.8996  0.1785
              Bcc     0.0039     2.096     0.748     0.699  0.7496  0.4316 -0.5017
 
              Baa    -0.0019    -1.009    -0.360    -0.336  0.9309 -0.2387  0.2766
    26 H(1)   Bbb    -0.0011    -0.600    -0.214    -0.200 -0.2493  0.1384  0.9585
              Bcc     0.0030     1.609     0.574     0.537  0.2670  0.9612 -0.0694
 
              Baa    -0.0028    -1.512    -0.540    -0.504  0.7107 -0.5149 -0.4793
    27 H(1)   Bbb    -0.0007    -0.364    -0.130    -0.121  0.7034  0.5164  0.4883
              Bcc     0.0035     1.877     0.670     0.626 -0.0039 -0.6842  0.7293
 
              Baa    -0.0099     0.713     0.254     0.238  0.4575  0.6614  0.5944
    28 O(17)  Bbb    -0.0043     0.308     0.110     0.103  0.8655 -0.4846 -0.1269
              Bcc     0.0141    -1.020    -0.364    -0.340 -0.2041 -0.5724  0.7941
 
              Baa    -0.0034    -0.460    -0.164    -0.153 -0.1338  0.6912  0.7101
    29 C(13)  Bbb    -0.0011    -0.147    -0.052    -0.049  0.9850  0.1718  0.0183
              Bcc     0.0045     0.607     0.217     0.202  0.1094 -0.7019  0.7038
 
              Baa    -0.0022    -1.149    -0.410    -0.383 -0.3415  0.3316  0.8795
    30 H(1)   Bbb    -0.0012    -0.633    -0.226    -0.211  0.2465  0.9345 -0.2566
              Bcc     0.0033     1.783     0.636     0.595  0.9070 -0.1292  0.4009
 
              Baa    -0.0017    -0.907    -0.324    -0.303  0.3640 -0.1406  0.9207
    31 H(1)   Bbb    -0.0013    -0.715    -0.255    -0.239  0.8723  0.3979 -0.2841
              Bcc     0.0030     1.623     0.579     0.541 -0.3264  0.9066  0.2675
 
              Baa    -0.0030    -1.581    -0.564    -0.527  0.8785  0.3737  0.2976
    32 H(1)   Bbb    -0.0026    -1.361    -0.486    -0.454  0.0295 -0.6642  0.7470
              Bcc     0.0055     2.943     1.050     0.982 -0.4768  0.6474  0.5945
 
              Baa    -0.0026    -1.387    -0.495    -0.463  0.9891 -0.0207  0.1456
    33 H(1)   Bbb    -0.0016    -0.864    -0.308    -0.288 -0.1443  0.0545  0.9880
              Bcc     0.0042     2.251     0.803     0.751  0.0284  0.9983 -0.0510
 
              Baa    -0.0044    -2.365    -0.844    -0.789  0.4855  0.5225  0.7009
    34 H(1)   Bbb     0.0014     0.743     0.265     0.248  0.8714 -0.3540 -0.3396
              Bcc     0.0030     1.622     0.579     0.541  0.0707  0.7757 -0.6272
 
              Baa    -0.0015    -0.801    -0.286    -0.267  0.4400  0.8844  0.1560
    35 H(1)   Bbb    -0.0013    -0.701    -0.250    -0.234  0.8133 -0.3188 -0.4868
              Bcc     0.0028     1.502     0.536     0.501  0.3808 -0.3410  0.8595
 
              Baa    -0.0013    -0.693    -0.247    -0.231  0.0326  0.6840  0.7287
    36 H(1)   Bbb    -0.0009    -0.503    -0.179    -0.168  0.8381  0.3785 -0.3928
              Bcc     0.0022     1.196     0.427     0.399 -0.5445  0.6236 -0.5609
 

 ---------------------------------------------------------------------------------

 No NMR shielding tensors so no spin-rotation constants.
 Leave Link  601 at Thu Oct 17 10:22:31 2024, MaxMem=  6710886400 cpu:               2.6 elap:               0.2
 (Enter /home/zengyun1/App/g16/l9999.exe)
 Unable to Open any file for archive entry.
 1\1\GINC-SHENG-P340-21-194\SP\UB3LYP\6-31G(d)\C15H19N1O1(1+,2)\ZENGYUN
 1\17-Oct-2024\0\\#P B3LYP/6-31G* em=gd3 out=wfn\\Title Card Required\\
 1,2\C,0,-1.075347,-2.126391,-0.001024\C,0,-0.04815,-1.468735,-0.00171\
 C,0,1.11754,-0.680582,0.006873\C,0,1.126959,0.680582,-0.004631\C,0,-0.
 049512,1.468836,-0.003133\C,0,-1.07149,2.126289,0.003625\N,0,-2.235179
 ,-2.786008,-0.029637\H,0,2.072268,-1.204463,0.018781\H,0,2.085399,1.19
 5164,-0.013883\C,0,-2.331724,2.874339,0.037702\C,0,-2.346174,-4.099746
 ,0.651142\C,0,-3.481441,-1.987844,0.081272\C,0,-3.529451,1.934568,-0.2
 16492\H,0,-2.313628,3.621811,-0.770276\C,0,-2.495565,3.629719,1.373358
 \C,0,-3.696799,-4.120221,1.379838\H,0,-2.305496,-4.911773,-0.084114\H,
 0,-1.521478,-4.226075,1.362345\C,0,-4.626342,-2.874175,-0.414804\C,0,-
 3.713167,-1.616369,1.554982\H,0,-3.376727,-1.105676,-0.55405\H,0,-3.42
 2462,1.4108,-1.171998\H,0,-4.466198,2.503975,-0.235041\H,0,-3.597152,1
 .184718,0.579759\H,0,-1.657577,4.312373,1.546073\H,0,-3.424481,4.21226
 ,1.368585\H,0,-2.534579,2.922218,2.209189\O,0,-4.757941,-4.036183,0.42
 0962\C,0,-3.799848,-2.943586,2.364717\H,0,-3.830297,-5.080308,1.886194
 \H,0,-5.571278,-2.315957,-0.386179\H,0,-4.439901,-3.192885,-1.448752\H
 ,0,-4.633538,-1.028548,1.648903\H,0,-2.884402,-0.987149,1.896465\H,0,-
 2.998402,-3.011104,3.110525\H,0,-4.751997,-3.02032,2.897135\\Version=E
 S64L-G16RevC.01\State=2-A\HF=-712.6473883\S2=0.766647\S2-1=0.\S2A=0.75
 0149\RMSD=4.730e-09\Dipole=1.3490417,0.3754149,0.0312188\Quadrupole=3.
 6896687,9.3780115,-13.0676802,0.229919,-2.0717296,-3.7794542\PG=C01 [X
 (C15H19N1O1)]\\@
 The archive entry for this job was punched.

 Writing a WFN file to "N-1.wfn"


 You don't have to suffer to be a poet.
 Adolescence is enough suffering for anyone.
                             -- John Ciardi
 Job cpu time:       0 days  0 hours 16 minutes 18.9 seconds.
 Elapsed time:       0 days  0 hours  1 minutes  5.4 seconds.
 File lengths (MBytes):  RWF=     85 Int=      0 D2E=      0 Chk=      7 Scr=      1
 Normal termination of Gaussian 16 at Thu Oct 17 10:22:31 2024.
