 Title Card Required
GAUSSIAN             62 MOL ORBITALS    552 PRIMITIVES       36 NUCLEI
  C    1    (CENTRE  1)   1.05911249  3.15409871 -0.55426129  CHARGE =  6.0
  C    2    (CENTRE  2)  -0.84741145  4.40816792 -0.23029274  CHARGE =  6.0
  C    3    (CENTRE  3)  -3.08183902  5.79699647  0.15639265  CHARGE =  6.0
  C    4    (CENTRE  4)  -5.44275433  4.77612141  0.18856474  CHARGE =  6.0
  C    5    (CENTRE  5)  -5.92275784  2.16198302 -0.12352477  CHARGE =  6.0
  C    6    (CENTRE  6)  -6.29174309 -0.08940149 -0.38546596  CHARGE =  6.0
  N    7    (CENTRE  7)   3.06398975  1.68215273 -0.97181355  CHARGE =  7.0
  H    8    (CENTRE  8)  -2.89041688  7.82663118  0.43848427  CHARGE =  1.0
  H    9    (CENTRE  9)  -7.05180838  6.02409823  0.47107028  CHARGE =  1.0
  C   10    (CENTRE 10)  -6.63452805 -2.82428189 -0.66276588  CHARGE =  6.0
  C   11    (CENTRE 11)   5.52092941  2.32391036  0.21728835  CHARGE =  6.0
  C   12    (CENTRE 12)   2.63582459 -1.08654854 -1.09973986  CHARGE =  6.0
  C   13    (CENTRE 13)  -4.15146009 -4.08996023 -1.52294103  CHARGE =  6.0
  H   14    (CENTRE 14)  -8.06267224 -3.16011130 -2.13765238  CHARGE =  1.0
  C   15    (CENTRE 15)  -7.61378581 -4.01919373  1.81058090  CHARGE =  6.0
  C   16    (CENTRE 16)   6.67961201 -0.15400862  1.18133723  CHARGE =  6.0
  H   17    (CENTRE 17)   6.78175230  3.19971668 -1.17355216  CHARGE =  1.0
  H   18    (CENTRE 18)   5.22925314  3.65069743  1.78144820  CHARGE =  1.0
  C   19    (CENTRE 19)   4.95014512 -2.24157688 -2.39393869  CHARGE =  6.0
  C   20    (CENTRE 20)   2.39185082 -2.13914313  1.59706848  CHARGE =  6.0
  H   21    (CENTRE 21)   0.93626691 -1.42083166 -2.22196713  CHARGE =  1.0
  H   22    (CENTRE 22)  -3.47197094 -3.26531068 -3.29470218  CHARGE =  1.0
  H   23    (CENTRE 23)  -4.43604057 -6.12195211 -1.81046330  CHARGE =  1.0
  H   24    (CENTRE 24)  -2.68380729 -3.83416501 -0.08455188  CHARGE =  1.0
  H   25    (CENTRE 25)  -9.39529162 -3.15157599  2.40376314  CHARGE =  1.0
  H   26    (CENTRE 26)  -7.92483594 -6.05131286  1.55155533  CHARGE =  1.0
  H   27    (CENTRE 27)  -6.23479375 -3.75670893  3.33282790  CHARGE =  1.0
  O   28    (CENTRE 28)   7.18392117 -1.79014995 -0.91590478  CHARGE =  8.0
  C   29    (CENTRE 29)   4.87347837 -1.47811840  3.03348547  CHARGE =  6.0
  H   30    (CENTRE 30)   8.51576759  0.22319235  2.05150540  CHARGE =  1.0
  H   31    (CENTRE 31)   4.69821570 -4.29094914 -2.59622377  CHARGE =  1.0
  H   32    (CENTRE 32)   5.20379949 -1.41790463 -4.28119348  CHARGE =  1.0
  H   33    (CENTRE 33)   2.08028863 -4.18563774  1.52495830  CHARGE =  1.0
  H   34    (CENTRE 34)   0.73527249 -1.28914162  2.50056666  CHARGE =  1.0
  H   35    (CENTRE 35)   4.50286971 -0.24476350  4.65763050  CHARGE =  1.0
  H   36    (CENTRE 36)   5.80081532 -3.18211004  3.74570377  CHARGE =  1.0
CENTRE ASSIGNMENTS    1  1  1  1  1  1  1  1  1  1  1  1  1  1  1  1  1  1  1  1
CENTRE ASSIGNMENTS    1  1  1  1  1  1  1  1  2  2  2  2  2  2  2  2  2  2  2  2
CENTRE ASSIGNMENTS    2  2  2  2  2  2  2  2  2  2  2  2  2  2  2  2  3  3  3  3
CENTRE ASSIGNMENTS    3  3  3  3  3  3  3  3  3  3  3  3  3  3  3  3  3  3  3  3
CENTRE ASSIGNMENTS    3  3  3  3  4  4  4  4  4  4  4  4  4  4  4  4  4  4  4  4
CENTRE ASSIGNMENTS    4  4  4  4  4  4  4  4  4  4  4  4  5  5  5  5  5  5  5  5
CENTRE ASSIGNMENTS    5  5  5  5  5  5  5  5  5  5  5  5  5  5  5  5  5  5  5  5
CENTRE ASSIGNMENTS    6  6  6  6  6  6  6  6  6  6  6  6  6  6  6  6  6  6  6  6
CENTRE ASSIGNMENTS    6  6  6  6  6  6  6  6  7  7  7  7  7  7  7  7  7  7  7  7
CENTRE ASSIGNMENTS    7  7  7  7  7  7  7  7  7  7  7  7  7  7  7  7  8  8  8  8
CENTRE ASSIGNMENTS    9  9  9  9 10 10 10 10 10 10 10 10 10 10 10 10 10 10 10 10
CENTRE ASSIGNMENTS   10 10 10 10 10 10 10 10 10 10 10 10 11 11 11 11 11 11 11 11
CENTRE ASSIGNMENTS   11 11 11 11 11 11 11 11 11 11 11 11 11 11 11 11 11 11 11 11
CENTRE ASSIGNMENTS   12 12 12 12 12 12 12 12 12 12 12 12 12 12 12 12 12 12 12 12
CENTRE ASSIGNMENTS   12 12 12 12 12 12 12 12 13 13 13 13 13 13 13 13 13 13 13 13
CENTRE ASSIGNMENTS   13 13 13 13 13 13 13 13 13 13 13 13 13 13 13 13 14 14 14 14
CENTRE ASSIGNMENTS   15 15 15 15 15 15 15 15 15 15 15 15 15 15 15 15 15 15 15 15
CENTRE ASSIGNMENTS   15 15 15 15 15 15 15 15 16 16 16 16 16 16 16 16 16 16 16 16
CENTRE ASSIGNMENTS   16 16 16 16 16 16 16 16 16 16 16 16 16 16 16 16 17 17 17 17
CENTRE ASSIGNMENTS   18 18 18 18 19 19 19 19 19 19 19 19 19 19 19 19 19 19 19 19
CENTRE ASSIGNMENTS   19 19 19 19 19 19 19 19 19 19 19 19 20 20 20 20 20 20 20 20
CENTRE ASSIGNMENTS   20 20 20 20 20 20 20 20 20 20 20 20 20 20 20 20 20 20 20 20
CENTRE ASSIGNMENTS   21 21 21 21 22 22 22 22 23 23 23 23 24 24 24 24 25 25 25 25
CENTRE ASSIGNMENTS   26 26 26 26 27 27 27 27 28 28 28 28 28 28 28 28 28 28 28 28
CENTRE ASSIGNMENTS   28 28 28 28 28 28 28 28 28 28 28 28 28 28 28 28 29 29 29 29
CENTRE ASSIGNMENTS   29 29 29 29 29 29 29 29 29 29 29 29 29 29 29 29 29 29 29 29
CENTRE ASSIGNMENTS   29 29 29 29 30 30 30 30 31 31 31 31 32 32 32 32 33 33 33 33
CENTRE ASSIGNMENTS   34 34 34 34 35 35 35 35 36 36 36 36
TYPE ASSIGNMENTS      1  1  1  1  1  1  1  1  1  2  2  2  3  3  3  4  4  4  1  2
TYPE ASSIGNMENTS      3  4  5  6  7  8  9 10  1  1  1  1  1  1  1  1  1  2  2  2
TYPE ASSIGNMENTS      3  3  3  4  4  4  1  2  3  4  5  6  7  8  9 10  1  1  1  1
TYPE ASSIGNMENTS      1  1  1  1  1  2  2  2  3  3  3  4  4  4  1  2  3  4  5  6
TYPE ASSIGNMENTS      7  8  9 10  1  1  1  1  1  1  1  1  1  2  2  2  3  3  3  4
TYPE ASSIGNMENTS      4  4  1  2  3  4  5  6  7  8  9 10  1  1  1  1  1  1  1  1
TYPE ASSIGNMENTS      1  2  2  2  3  3  3  4  4  4  1  2  3  4  5  6  7  8  9 10
TYPE ASSIGNMENTS      1  1  1  1  1  1  1  1  1  2  2  2  3  3  3  4  4  4  1  2
TYPE ASSIGNMENTS      3  4  5  6  7  8  9 10  1  1  1  1  1  1  1  1  1  2  2  2
TYPE ASSIGNMENTS      3  3  3  4  4  4  1  2  3  4  5  6  7  8  9 10  1  1  1  1
TYPE ASSIGNMENTS      1  1  1  1  1  1  1  1  1  1  1  1  1  2  2  2  3  3  3  4
TYPE ASSIGNMENTS      4  4  1  2  3  4  5  6  7  8  9 10  1  1  1  1  1  1  1  1
TYPE ASSIGNMENTS      1  2  2  2  3  3  3  4  4  4  1  2  3  4  5  6  7  8  9 10
TYPE ASSIGNMENTS      1  1  1  1  1  1  1  1  1  2  2  2  3  3  3  4  4  4  1  2
TYPE ASSIGNMENTS      3  4  5  6  7  8  9 10  1  1  1  1  1  1  1  1  1  2  2  2
TYPE ASSIGNMENTS      3  3  3  4  4  4  1  2  3  4  5  6  7  8  9 10  1  1  1  1
TYPE ASSIGNMENTS      1  1  1  1  1  1  1  1  1  2  2  2  3  3  3  4  4  4  1  2
TYPE ASSIGNMENTS      3  4  5  6  7  8  9 10  1  1  1  1  1  1  1  1  1  2  2  2
TYPE ASSIGNMENTS      3  3  3  4  4  4  1  2  3  4  5  6  7  8  9 10  1  1  1  1
TYPE ASSIGNMENTS      1  1  1  1  1  1  1  1  1  1  1  1  1  2  2  2  3  3  3  4
TYPE ASSIGNMENTS      4  4  1  2  3  4  5  6  7  8  9 10  1  1  1  1  1  1  1  1
TYPE ASSIGNMENTS      1  2  2  2  3  3  3  4  4  4  1  2  3  4  5  6  7  8  9 10
TYPE ASSIGNMENTS      1  1  1  1  1  1  1  1  1  1  1  1  1  1  1  1  1  1  1  1
TYPE ASSIGNMENTS      1  1  1  1  1  1  1  1  1  1  1  1  1  1  1  1  1  2  2  2
TYPE ASSIGNMENTS      3  3  3  4  4  4  1  2  3  4  5  6  7  8  9 10  1  1  1  1
TYPE ASSIGNMENTS      1  1  1  1  1  2  2  2  3  3  3  4  4  4  1  2  3  4  5  6
TYPE ASSIGNMENTS      7  8  9 10  1  1  1  1  1  1  1  1  1  1  1  1  1  1  1  1
TYPE ASSIGNMENTS      1  1  1  1  1  1  1  1  1  1  1  1
EXPONENTS  0.3047525D+04 0.4573695D+03 0.1039487D+03 0.2921016D+02 0.9286663D+01
EXPONENTS  0.3163927D+01 0.7868272D+01 0.1881289D+01 0.5442493D+00 0.7868272D+01
EXPONENTS  0.1881289D+01 0.5442493D+00 0.7868272D+01 0.1881289D+01 0.5442493D+00
EXPONENTS  0.7868272D+01 0.1881289D+01 0.5442493D+00 0.1687145D+00 0.1687145D+00
EXPONENTS  0.1687145D+00 0.1687145D+00 0.8000000D+00 0.8000000D+00 0.8000000D+00
EXPONENTS  0.8000000D+00 0.8000000D+00 0.8000000D+00 0.3047525D+04 0.4573695D+03
EXPONENTS  0.1039487D+03 0.2921016D+02 0.9286663D+01 0.3163927D+01 0.7868272D+01
EXPONENTS  0.1881289D+01 0.5442493D+00 0.7868272D+01 0.1881289D+01 0.5442493D+00
EXPONENTS  0.7868272D+01 0.1881289D+01 0.5442493D+00 0.7868272D+01 0.1881289D+01
EXPONENTS  0.5442493D+00 0.1687145D+00 0.1687145D+00 0.1687145D+00 0.1687145D+00
EXPONENTS  0.8000000D+00 0.8000000D+00 0.8000000D+00 0.8000000D+00 0.8000000D+00
EXPONENTS  0.8000000D+00 0.3047525D+04 0.4573695D+03 0.1039487D+03 0.2921016D+02
EXPONENTS  0.9286663D+01 0.3163927D+01 0.7868272D+01 0.1881289D+01 0.5442493D+00
EXPONENTS  0.7868272D+01 0.1881289D+01 0.5442493D+00 0.7868272D+01 0.1881289D+01
EXPONENTS  0.5442493D+00 0.7868272D+01 0.1881289D+01 0.5442493D+00 0.1687145D+00
EXPONENTS  0.1687145D+00 0.1687145D+00 0.1687145D+00 0.8000000D+00 0.8000000D+00
EXPONENTS  0.8000000D+00 0.8000000D+00 0.8000000D+00 0.8000000D+00 0.3047525D+04
EXPONENTS  0.4573695D+03 0.1039487D+03 0.2921016D+02 0.9286663D+01 0.3163927D+01
EXPONENTS  0.7868272D+01 0.1881289D+01 0.5442493D+00 0.7868272D+01 0.1881289D+01
EXPONENTS  0.5442493D+00 0.7868272D+01 0.1881289D+01 0.5442493D+00 0.7868272D+01
EXPONENTS  0.1881289D+01 0.5442493D+00 0.1687145D+00 0.1687145D+00 0.1687145D+00
EXPONENTS  0.1687145D+00 0.8000000D+00 0.8000000D+00 0.8000000D+00 0.8000000D+00
EXPONENTS  0.8000000D+00 0.8000000D+00 0.3047525D+04 0.4573695D+03 0.1039487D+03
EXPONENTS  0.2921016D+02 0.9286663D+01 0.3163927D+01 0.7868272D+01 0.1881289D+01
EXPONENTS  0.5442493D+00 0.7868272D+01 0.1881289D+01 0.5442493D+00 0.7868272D+01
EXPONENTS  0.1881289D+01 0.5442493D+00 0.7868272D+01 0.1881289D+01 0.5442493D+00
EXPONENTS  0.1687145D+00 0.1687145D+00 0.1687145D+00 0.1687145D+00 0.8000000D+00
EXPONENTS  0.8000000D+00 0.8000000D+00 0.8000000D+00 0.8000000D+00 0.8000000D+00
EXPONENTS  0.3047525D+04 0.4573695D+03 0.1039487D+03 0.2921016D+02 0.9286663D+01
EXPONENTS  0.3163927D+01 0.7868272D+01 0.1881289D+01 0.5442493D+00 0.7868272D+01
EXPONENTS  0.1881289D+01 0.5442493D+00 0.7868272D+01 0.1881289D+01 0.5442493D+00
EXPONENTS  0.7868272D+01 0.1881289D+01 0.5442493D+00 0.1687145D+00 0.1687145D+00
EXPONENTS  0.1687145D+00 0.1687145D+00 0.8000000D+00 0.8000000D+00 0.8000000D+00
EXPONENTS  0.8000000D+00 0.8000000D+00 0.8000000D+00 0.4173511D+04 0.6274579D+03
EXPONENTS  0.1429021D+03 0.4023433D+02 0.1282021D+02 0.4390437D+01 0.1162636D+02
EXPONENTS  0.2716280D+01 0.7722184D+00 0.1162636D+02 0.2716280D+01 0.7722184D+00
EXPONENTS  0.1162636D+02 0.2716280D+01 0.7722184D+00 0.1162636D+02 0.2716280D+01
EXPONENTS  0.7722184D+00 0.2120315D+00 0.2120315D+00 0.2120315D+00 0.2120315D+00
EXPONENTS  0.8000000D+00 0.8000000D+00 0.8000000D+00 0.8000000D+00 0.8000000D+00
EXPONENTS  0.8000000D+00 0.1873114D+02 0.2825394D+01 0.6401217D+00 0.1612778D+00
EXPONENTS  0.1873114D+02 0.2825394D+01 0.6401217D+00 0.1612778D+00 0.3047525D+04
EXPONENTS  0.4573695D+03 0.1039487D+03 0.2921016D+02 0.9286663D+01 0.3163927D+01
EXPONENTS  0.7868272D+01 0.1881289D+01 0.5442493D+00 0.7868272D+01 0.1881289D+01
EXPONENTS  0.5442493D+00 0.7868272D+01 0.1881289D+01 0.5442493D+00 0.7868272D+01
EXPONENTS  0.1881289D+01 0.5442493D+00 0.1687145D+00 0.1687145D+00 0.1687145D+00
EXPONENTS  0.1687145D+00 0.8000000D+00 0.8000000D+00 0.8000000D+00 0.8000000D+00
EXPONENTS  0.8000000D+00 0.8000000D+00 0.3047525D+04 0.4573695D+03 0.1039487D+03
EXPONENTS  0.2921016D+02 0.9286663D+01 0.3163927D+01 0.7868272D+01 0.1881289D+01
EXPONENTS  0.5442493D+00 0.7868272D+01 0.1881289D+01 0.5442493D+00 0.7868272D+01
EXPONENTS  0.1881289D+01 0.5442493D+00 0.7868272D+01 0.1881289D+01 0.5442493D+00
EXPONENTS  0.1687145D+00 0.1687145D+00 0.1687145D+00 0.1687145D+00 0.8000000D+00
EXPONENTS  0.8000000D+00 0.8000000D+00 0.8000000D+00 0.8000000D+00 0.8000000D+00
EXPONENTS  0.3047525D+04 0.4573695D+03 0.1039487D+03 0.2921016D+02 0.9286663D+01
EXPONENTS  0.3163927D+01 0.7868272D+01 0.1881289D+01 0.5442493D+00 0.7868272D+01
EXPONENTS  0.1881289D+01 0.5442493D+00 0.7868272D+01 0.1881289D+01 0.5442493D+00
EXPONENTS  0.7868272D+01 0.1881289D+01 0.5442493D+00 0.1687145D+00 0.1687145D+00
EXPONENTS  0.1687145D+00 0.1687145D+00 0.8000000D+00 0.8000000D+00 0.8000000D+00
EXPONENTS  0.8000000D+00 0.8000000D+00 0.8000000D+00 0.3047525D+04 0.4573695D+03
EXPONENTS  0.1039487D+03 0.2921016D+02 0.9286663D+01 0.3163927D+01 0.7868272D+01
EXPONENTS  0.1881289D+01 0.5442493D+00 0.7868272D+01 0.1881289D+01 0.5442493D+00
EXPONENTS  0.7868272D+01 0.1881289D+01 0.5442493D+00 0.7868272D+01 0.1881289D+01
EXPONENTS  0.5442493D+00 0.1687145D+00 0.1687145D+00 0.1687145D+00 0.1687145D+00
EXPONENTS  0.8000000D+00 0.8000000D+00 0.8000000D+00 0.8000000D+00 0.8000000D+00
EXPONENTS  0.8000000D+00 0.1873114D+02 0.2825394D+01 0.6401217D+00 0.1612778D+00
EXPONENTS  0.3047525D+04 0.4573695D+03 0.1039487D+03 0.2921016D+02 0.9286663D+01
EXPONENTS  0.3163927D+01 0.7868272D+01 0.1881289D+01 0.5442493D+00 0.7868272D+01
EXPONENTS  0.1881289D+01 0.5442493D+00 0.7868272D+01 0.1881289D+01 0.5442493D+00
EXPONENTS  0.7868272D+01 0.1881289D+01 0.5442493D+00 0.1687145D+00 0.1687145D+00
EXPONENTS  0.1687145D+00 0.1687145D+00 0.8000000D+00 0.8000000D+00 0.8000000D+00
EXPONENTS  0.8000000D+00 0.8000000D+00 0.8000000D+00 0.3047525D+04 0.4573695D+03
EXPONENTS  0.1039487D+03 0.2921016D+02 0.9286663D+01 0.3163927D+01 0.7868272D+01
EXPONENTS  0.1881289D+01 0.5442493D+00 0.7868272D+01 0.1881289D+01 0.5442493D+00
EXPONENTS  0.7868272D+01 0.1881289D+01 0.5442493D+00 0.7868272D+01 0.1881289D+01
EXPONENTS  0.5442493D+00 0.1687145D+00 0.1687145D+00 0.1687145D+00 0.1687145D+00
EXPONENTS  0.8000000D+00 0.8000000D+00 0.8000000D+00 0.8000000D+00 0.8000000D+00
EXPONENTS  0.8000000D+00 0.1873114D+02 0.2825394D+01 0.6401217D+00 0.1612778D+00
EXPONENTS  0.1873114D+02 0.2825394D+01 0.6401217D+00 0.1612778D+00 0.3047525D+04
EXPONENTS  0.4573695D+03 0.1039487D+03 0.2921016D+02 0.9286663D+01 0.3163927D+01
EXPONENTS  0.7868272D+01 0.1881289D+01 0.5442493D+00 0.7868272D+01 0.1881289D+01
EXPONENTS  0.5442493D+00 0.7868272D+01 0.1881289D+01 0.5442493D+00 0.7868272D+01
EXPONENTS  0.1881289D+01 0.5442493D+00 0.1687145D+00 0.1687145D+00 0.1687145D+00
EXPONENTS  0.1687145D+00 0.8000000D+00 0.8000000D+00 0.8000000D+00 0.8000000D+00
EXPONENTS  0.8000000D+00 0.8000000D+00 0.3047525D+04 0.4573695D+03 0.1039487D+03
EXPONENTS  0.2921016D+02 0.9286663D+01 0.3163927D+01 0.7868272D+01 0.1881289D+01
EXPONENTS  0.5442493D+00 0.7868272D+01 0.1881289D+01 0.5442493D+00 0.7868272D+01
EXPONENTS  0.1881289D+01 0.5442493D+00 0.7868272D+01 0.1881289D+01 0.5442493D+00
EXPONENTS  0.1687145D+00 0.1687145D+00 0.1687145D+00 0.1687145D+00 0.8000000D+00
EXPONENTS  0.8000000D+00 0.8000000D+00 0.8000000D+00 0.8000000D+00 0.8000000D+00
EXPONENTS  0.1873114D+02 0.2825394D+01 0.6401217D+00 0.1612778D+00 0.1873114D+02
EXPONENTS  0.2825394D+01 0.6401217D+00 0.1612778D+00 0.1873114D+02 0.2825394D+01
EXPONENTS  0.6401217D+00 0.1612778D+00 0.1873114D+02 0.2825394D+01 0.6401217D+00
EXPONENTS  0.1612778D+00 0.1873114D+02 0.2825394D+01 0.6401217D+00 0.1612778D+00
EXPONENTS  0.1873114D+02 0.2825394D+01 0.6401217D+00 0.1612778D+00 0.1873114D+02
EXPONENTS  0.2825394D+01 0.6401217D+00 0.1612778D+00 0.5484672D+04 0.8252349D+03
EXPONENTS  0.1880470D+03 0.5296450D+02 0.1689757D+02 0.5799635D+01 0.1553962D+02
EXPONENTS  0.3599934D+01 0.1013762D+01 0.1553962D+02 0.3599934D+01 0.1013762D+01
EXPONENTS  0.1553962D+02 0.3599934D+01 0.1013762D+01 0.1553962D+02 0.3599934D+01
EXPONENTS  0.1013762D+01 0.2700058D+00 0.2700058D+00 0.2700058D+00 0.2700058D+00
EXPONENTS  0.8000000D+00 0.8000000D+00 0.8000000D+00 0.8000000D+00 0.8000000D+00
EXPONENTS  0.8000000D+00 0.3047525D+04 0.4573695D+03 0.1039487D+03 0.2921016D+02
EXPONENTS  0.9286663D+01 0.3163927D+01 0.7868272D+01 0.1881289D+01 0.5442493D+00
EXPONENTS  0.7868272D+01 0.1881289D+01 0.5442493D+00 0.7868272D+01 0.1881289D+01
EXPONENTS  0.5442493D+00 0.7868272D+01 0.1881289D+01 0.5442493D+00 0.1687145D+00
EXPONENTS  0.1687145D+00 0.1687145D+00 0.1687145D+00 0.8000000D+00 0.8000000D+00
EXPONENTS  0.8000000D+00 0.8000000D+00 0.8000000D+00 0.8000000D+00 0.1873114D+02
EXPONENTS  0.2825394D+01 0.6401217D+00 0.1612778D+00 0.1873114D+02 0.2825394D+01
EXPONENTS  0.6401217D+00 0.1612778D+00 0.1873114D+02 0.2825394D+01 0.6401217D+00
EXPONENTS  0.1612778D+00 0.1873114D+02 0.2825394D+01 0.6401217D+00 0.1612778D+00
EXPONENTS  0.1873114D+02 0.2825394D+01 0.6401217D+00 0.1612778D+00 0.1873114D+02
EXPONENTS  0.2825394D+01 0.6401217D+00 0.1612778D+00 0.1873114D+02 0.2825394D+01
EXPONENTS  0.6401217D+00 0.1612778D+00
MO    1     MO 0.0        OCC NO =    2.0000000  ORB. ENERGY =  -19.150069
  0.42599051D-05  0.78586931D-05  0.12686367D-04  0.16513881D-04  0.14091324D-04
  0.48653957D-05 -0.11051267D-04 -0.50935188D-05  0.14282758D-04  0.75382734D-05
  0.57798699D-05  0.28845602D-05 -0.61698789D-05 -0.47306718D-05 -0.23609368D-05
 -0.11238781D-04 -0.86171844D-05 -0.43005789D-05 -0.62806922D-04  0.10505023D-03
 -0.72052717D-04 -0.14184532D-04  0.24462706D-04  0.12264236D-04  0.12928895D-04
 -0.15910577D-04  0.42986166D-05  0.12249831D-04 -0.55414809D-06 -0.10222950D-05
 -0.16503011D-05 -0.21482017D-05 -0.18330644D-05 -0.63291310D-06  0.32297109D-05
  0.14885708D-05 -0.41741079D-05 -0.40614613D-05 -0.31140709D-05 -0.15541396D-05
  0.14366324D-05  0.11015186D-05  0.54973498D-06  0.33454633D-05  0.25650891D-05
  0.12801592D-05  0.12772878D-03  0.67365813D-04 -0.41850550D-04 -0.13936751D-04
 -0.27643151D-05 -0.11938757D-05  0.13670450D-05  0.68268484D-05 -0.26158285D-06
 -0.65317587D-06  0.35923308D-07  0.66271490D-07  0.10698273D-06  0.13925973D-06
  0.11883058D-06  0.41029344D-07  0.74765687D-06  0.34459437D-06 -0.96627858D-06
  0.51939811D-05  0.39824153D-05  0.19875043D-05 -0.29734811D-05 -0.22798767D-05
 -0.11378183D-05 -0.19050893D-05 -0.14607017D-05 -0.72899251D-06  0.36837575D-04
  0.11126529D-04 -0.89533817D-05 -0.10878610D-05  0.35700232D-05  0.19925920D-05
 -0.42518796D-07 -0.68488983D-06  0.50646792D-06 -0.86764913D-06  0.10551857D-06
  0.19466115D-06  0.31424346D-06  0.40905161D-06  0.34904448D-06  0.12051667D-06
 -0.56447463D-06 -0.26016584D-06  0.72953218D-06 -0.14956887D-05 -0.11467993D-05
 -0.57233321D-06 -0.94036463D-06 -0.72101196D-06 -0.35983550D-06  0.23854194D-06
  0.18289883D-06  0.91279334D-07 -0.89484443D-05 -0.33561890D-06  0.57970549D-05
  0.33781377D-06 -0.48904349D-06 -0.61307050D-06  0.24279270D-06 -0.20550024D-05
 -0.81900159D-06 -0.15157350D-06 -0.48780932D-08 -0.89991295D-08 -0.14527385D-07
 -0.18910339D-07 -0.16136227D-07 -0.55714513D-08  0.17637177D-06  0.81289590D-07
 -0.22794449D-06 -0.68264366D-09 -0.52340786D-09 -0.26121721D-09 -0.84641562D-06
 -0.64897781D-06 -0.32388541D-06 -0.35160825D-06 -0.26959091D-06 -0.13454476D-06
 -0.21556247D-05  0.23200098D-05  0.98940641D-05  0.14981980D-05  0.23258534D-06
  0.13568621D-06  0.21850368D-06 -0.30690395D-06 -0.40241468D-07 -0.98912094D-07
  0.11006990D-06  0.20305748D-06  0.32779773D-06  0.42669525D-06  0.36409983D-06
  0.12571492D-06  0.97742068D-07  0.45049230D-07 -0.12632274D-06  0.17460200D-05
  0.13387374D-05  0.66812379D-06 -0.39704729D-06 -0.30443068D-06 -0.15193224D-06
  0.69323386D-06  0.53152775D-06  0.26526960D-06  0.10575866D-04 -0.24893550D-07
  0.51731899D-05  0.21903832D-06  0.75874982D-06  0.14340178D-05  0.99844177D-06
 -0.39772143D-06 -0.29528481D-07 -0.89209008D-07  0.15275339D-05  0.28130813D-05
  0.45451730D-05  0.59486544D-05  0.50955556D-05  0.17529302D-05 -0.91902956D-05
 -0.45432304D-05  0.11984751D-04 -0.20590885D-04 -0.16030332D-04 -0.76117689D-05
  0.53749147D-04  0.41844569D-04  0.19869282D-04  0.13996810D-04  0.10896740D-04
  0.51741576D-05 -0.11064843D-03  0.72963714D-04 -0.43898955D-04 -0.21142372D-04
  0.12310947D-05 -0.11265228D-04 -0.46413947D-06 -0.14423564D-04  0.18405803D-04
  0.19775382D-04 -0.13596002D-06 -0.23061393D-06 -0.26254581D-06  0.14602002D-05
 -0.14458582D-06 -0.24524492D-06 -0.27920267D-06 -0.60726431D-06  0.10281650D-07
  0.18967637D-07  0.30619648D-07  0.39857683D-07  0.34010633D-07  0.11743054D-07
  0.15802455D-06  0.72833373D-07 -0.20423238D-06  0.15547360D-05  0.11920730D-05
  0.59492796D-06  0.14604795D-05  0.11198030D-05  0.55886019D-06  0.98064009D-07
  0.75189262D-07  0.37524711D-07  0.29646167D-05  0.11444251D-06 -0.86323640D-06
 -0.20162936D-07  0.77070862D-06 -0.47731315D-07  0.31833507D-06 -0.81527239D-06
  0.14167898D-06 -0.36247804D-06  0.81118977D-05  0.14964867D-04  0.24157936D-04
  0.31446455D-04  0.26833317D-04  0.92648994D-05 -0.54208810D-04 -0.24984791D-04
  0.70059962D-04  0.13497994D-04  0.10349406D-04  0.51650788D-05 -0.48632391D-04
 -0.37288233D-04 -0.18609442D-04  0.78330923D-05  0.60059183D-05  0.29973742D-05
 -0.30972441D-04  0.14919087D-04  0.27844746D-04 -0.74149682D-05  0.44296897D-04
 -0.52092804D-04 -0.20852191D-04  0.19221819D-04 -0.12564124D-04 -0.38128081D-04
 -0.66125053D-05 -0.12198781D-04 -0.19692615D-04 -0.25633934D-04 -0.21873482D-04
 -0.75523877D-05 -0.55971805D-05 -0.25797354D-05  0.72338473D-05 -0.13723393D-04
 -0.10522227D-04 -0.52513289D-05 -0.46237714D-04 -0.35452146D-04 -0.17693106D-04
 -0.77679480D-04 -0.59559698D-04 -0.29724464D-04  0.56741891D-04  0.43654017D-04
  0.23615577D-04  0.63778214D-04 -0.89341630D-04 -0.16697319D-04 -0.38589333D-04
  0.17893513D-05 -0.20722535D-04 -0.39243516D-04  0.34241615D-06  0.63169094D-06
  0.10197450D-05  0.13274051D-05  0.11326771D-05  0.39108620D-06 -0.10721294D-05
 -0.49414344D-06  0.13856298D-05 -0.16907832D-05 -0.12963853D-05 -0.64698712D-06
 -0.21313254D-05 -0.16341651D-05 -0.81556294D-06  0.20938062D-05  0.16053978D-05
  0.80120602D-06 -0.43250718D-05  0.47398638D-06  0.11287897D-05 -0.19358120D-05
  0.73597309D-07  0.63949492D-06  0.20979335D-05 -0.89588877D-07  0.39753945D-06
 -0.13955055D-05 -0.96720255D-07 -0.16405586D-06 -0.18677180D-06 -0.42801541D-06
 -0.19631471D-06 -0.36216231D-06 -0.58464226D-06 -0.76103050D-06 -0.64938871D-06
 -0.22421832D-06  0.46585498D-06  0.21471214D-06 -0.60207524D-06 -0.86690457D-06
 -0.66468744D-06 -0.33172562D-06 -0.19745570D-07 -0.15139651D-07 -0.75557467D-08
  0.12228035D-06  0.93756819D-07  0.46791224D-07  0.89236826D-06  0.56986709D-06
  0.14085993D-06  0.49369175D-06 -0.60427890D-06 -0.58577042D-06 -0.12251722D-05
  0.19484766D-06  0.43700286D-07 -0.13266507D-06  0.65016324D-05  0.11994242D-04
  0.19362426D-04  0.25204125D-04  0.21506726D-04  0.74257556D-05 -0.77475229D-04
 -0.35708262D-04  0.10012969D-03  0.10308976D-03  0.79042692D-04  0.39447843D-04
 -0.27390323D-03 -0.21001162D-03 -0.10481052D-03 -0.34626233D-03 -0.26549199D-03
 -0.13249911D-03 -0.30562958D-03 -0.70639566D-04  0.10331547D-03  0.14595884D-03
  0.76401401D-04  0.19048916D-03  0.23484709D-03 -0.11502246D-03 -0.16300965D-03
  0.26028568D-03  0.63036305D-05  0.10692150D-04  0.12172635D-04 -0.13469722D-04
  0.55338832D-05  0.93865133D-05  0.10686214D-04 -0.20588681D-04  0.10041260D-04
  0.18524164D-04  0.29903744D-04  0.38925789D-04  0.33215447D-04  0.11468496D-04
 -0.96908935D-04 -0.44665239D-04  0.12524599D-03  0.38955069D-03  0.29868276D-03
  0.14906363D-03  0.54002247D-04  0.41405497D-04  0.20664245D-04  0.23090939D-03
  0.17704667D-03  0.88358698D-04 -0.39149852D-03 -0.16093242D-03 -0.28735601D-04
 -0.10875610D-03  0.33313344D-03  0.37901700D-04  0.11369061D-03  0.36058330D-04
  0.26506043D-03  0.49412468D-04 -0.29300944D-05 -0.54054521D-05 -0.87260757D-05
 -0.11358758D-04 -0.96924486D-05 -0.33465696D-05  0.11245009D-04  0.51828142D-05
 -0.14533152D-04  0.52922158D-05  0.40577354D-05  0.20250944D-05 -0.35722235D-05
 -0.27389544D-05 -0.13669302D-05  0.40164525D-04  0.30795610D-04  0.15369168D-04
 -0.83514606D-05  0.21110365D-04 -0.24894074D-04 -0.63245899D-05  0.15055702D-04
 -0.15554265D-04 -0.18596595D-04  0.21465939D-05 -0.24117136D-04  0.23635114D-04
  0.13921998D-04  0.23614343D-04  0.26884095D-04  0.15489854D-04 -0.34861384D-06
 -0.59131506D-06 -0.67319129D-06 -0.96870460D-06  0.49160365D-06  0.83385283D-06
  0.94931197D-06  0.87509097D-06 -0.10416464D-05 -0.17668294D-05 -0.20114729D-05
  0.43936174D-05 -0.13121467D-07 -0.22256491D-07 -0.25338228D-07  0.97310093D-07
 -0.81193881D-07 -0.13772019D-06 -0.15678957D-06  0.10360539D-06  0.86234907D-07
  0.14627072D-06  0.16652405D-06 -0.11742876D-05  0.82566411D+00  0.15196627D+01
  0.24591012D+01  0.32325573D+01  0.27725456D+01  0.94798043D+00 -0.15903468D-01
 -0.70960964D-02  0.20954868D-01 -0.25996741D-02 -0.20029088D-02 -0.87938482D-03
  0.11003460D-02  0.84775727D-03  0.37221110D-03  0.54167931D-03  0.41733471D-03
  0.18323241D-03  0.34794839D-02 -0.11706011D-03  0.49670302D-04  0.24523059D-04
 -0.91845512D-02 -0.91311102D-02 -0.91740982D-02  0.24806331D-04 -0.37867915D-04
 -0.98151769D-04  0.10951158D-04  0.20202747D-04  0.32613499D-04  0.42453085D-04
  0.36225294D-04  0.12507724D-04 -0.61694177D-04 -0.28434790D-04  0.79734119D-04
  0.36363086D-04  0.27880908D-04  0.13914527D-04 -0.94263046D-05 -0.72274925D-05
 -0.36070253D-05 -0.67830418D-04 -0.52008062D-04 -0.25955668D-04 -0.51804785D-04
 -0.14200737D-04 -0.15586972D-05  0.39113558D-04  0.39080843D-04  0.21604638D-05
 -0.38697352D-04 -0.35765651D-04  0.54982811D-04 -0.10462661D-04  0.22927587D-04
  0.38889528D-04  0.44274353D-04  0.13093744D-04  0.25335556D-04  0.42973898D-04
  0.48924264D-04  0.30673722D-05  0.23820521D-04  0.40404112D-04  0.45998653D-04
 -0.35593576D-06 -0.59785030D-05 -0.10140673D-04 -0.11544797D-04 -0.59052911D-05
  0.35991449D-05  0.61048309D-05  0.69501342D-05  0.14934714D-04  0.19961360D-05
  0.33858245D-05  0.38546416D-05 -0.28141274D-04  0.11418613D-04  0.19368130D-04
  0.22049931D-04 -0.33858129D-05
MO    2     MO 0.0        OCC NO =    2.0000000  ORB. ENERGY =  -14.370269
  0.36697593D-04  0.67699893D-04  0.10928862D-03  0.14226131D-03  0.12139183D-03
  0.41913682D-04 -0.19004569D-03 -0.87591884D-04  0.24561679D-03  0.41426015D-03
  0.31762841D-03  0.15851884D-03 -0.28377915D-03 -0.21758385D-03 -0.10858959D-03
 -0.12532411D-03 -0.96090581D-04 -0.47955934D-04 -0.74268610D-03  0.48715962D-03
 -0.34861967D-03 -0.48404245D-04 -0.15555366D-03 -0.48793634D-04  0.49608388D-04
  0.30484423D-03  0.39731688D-04 -0.15262030D-04  0.47861832D-05  0.88295735D-05
  0.14253669D-04  0.18554042D-04  0.15832198D-04  0.54664775D-05  0.55405394D-05
  0.25536296D-05 -0.71606438D-05  0.15138852D-03  0.11607511D-03  0.57929617D-04
 -0.10857590D-03 -0.83249111D-04 -0.41547141D-04 -0.20962118D-04 -0.16072422D-04
 -0.80212652D-05  0.73321550D-03  0.44399823D-03 -0.26842717D-03 -0.94235259D-04
  0.17340018D-03  0.54586080D-04  0.48154378D-05 -0.20921362D-03 -0.91167791D-04
  0.55247559D-04 -0.10464192D-05 -0.19304391D-05 -0.31163273D-05 -0.40565322D-05
 -0.34614463D-05 -0.11951542D-05 -0.15171730D-05 -0.69926365D-06  0.19608083D-05
 -0.12577843D-05 -0.96438925D-06 -0.48129782D-06  0.86415495D-05  0.66257920D-05
  0.33067346D-05 -0.64673798D-05 -0.49587766D-05 -0.24747771D-05  0.26278927D-03
  0.70927817D-04 -0.62940696D-04 -0.67677832D-05 -0.37609533D-04 -0.87198110D-05
 -0.41651249D-05  0.70305962D-04  0.21889019D-04 -0.16794952D-04  0.46191408D-06
  0.85214128D-06  0.13756202D-05  0.17906488D-05  0.15279639D-05  0.52756921D-06
 -0.13650425D-05 -0.62914685D-06  0.17641935D-05 -0.13119030D-04 -0.10058840D-04
 -0.50200663D-05 -0.92158328D-06 -0.70661161D-06 -0.35264871D-06  0.23990445D-05
  0.18394352D-05  0.91800708D-06 -0.71262862D-04 -0.22304606D-05  0.36618103D-04
  0.18611533D-05 -0.28402704D-05  0.49566502D-05 -0.11852045D-05 -0.28827818D-05
 -0.46927722D-05  0.11175396D-05 -0.48327315D-06 -0.89154460D-06 -0.14392294D-05
 -0.18734491D-05 -0.15986175D-05 -0.55196420D-06  0.88900261D-06  0.40974049D-06
 -0.11489551D-05 -0.45278776D-05 -0.34716894D-05 -0.17326163D-05 -0.65405394D-05
 -0.50148708D-05 -0.25027720D-05 -0.39886081D-05 -0.30582117D-05 -0.15262620D-05
 -0.34079340D-04  0.17436199D-04  0.77586766D-04  0.11411613D-04 -0.28871236D-06
 -0.75213504D-05 -0.19396567D-05 -0.26784598D-06  0.14771244D-06 -0.11485146D-05
 -0.29174845D-06 -0.53821892D-06 -0.86885221D-06 -0.11309874D-05 -0.96507361D-06
 -0.33321673D-06  0.21363988D-05  0.98466428D-06 -0.27611014D-05  0.25030901D-05
  0.19192108D-05  0.95782068D-06  0.25863205D-05  0.19830265D-05  0.98966922D-06
  0.14948432D-05  0.11461510D-05  0.57200966D-06  0.84029656D-04  0.52683586D-05
  0.50495854D-04  0.41342262D-05 -0.82118891D-06  0.75849450D-05 -0.69856569D-06
  0.97365487D-06 -0.21686303D-06  0.11782507D-05  0.67405352D+00  0.12413259D+01
  0.20056444D+01  0.26249574D+01  0.22485113D+01  0.77351393D+00 -0.18056793D-01
 -0.89263909D-02  0.23547247D-01 -0.74228250D-03 -0.57787878D-03 -0.27439729D-03
  0.21508428D-03  0.16744654D-03  0.79509542D-04  0.13802553D-02  0.10745508D-02
  0.51023471D-03  0.29564529D-03  0.15254247D-03 -0.61816802D-04 -0.13303850D-03
 -0.91685494D-02 -0.92355381D-02 -0.91525250D-02 -0.12277510D-03 -0.10591344D-03
  0.80513970D-05 -0.13778469D-05 -0.23370891D-05 -0.26606934D-05  0.99806222D-05
 -0.16733394D-06 -0.28383004D-06 -0.32313047D-06 -0.22710224D-05 -0.39593093D-06
 -0.73041526D-06 -0.11791167D-05 -0.15348596D-05 -0.13096985D-05 -0.45220741D-06
  0.16860417D-05  0.77709507D-06 -0.21790557D-05  0.13089212D-05  0.10035977D-05
  0.50086560D-06  0.55180931D-05  0.42309238D-05  0.21115275D-05 -0.58422088D-06
 -0.44794352D-06 -0.22355521D-06  0.26032773D-04  0.21705046D-05  0.53035836D-05
  0.16867647D-05  0.35716292D-06 -0.12734440D-05 -0.39551401D-06 -0.11106753D-05
 -0.53673437D-06 -0.86996251D-06 -0.17128000D-05 -0.31597815D-05 -0.51008670D-05
 -0.66398133D-05 -0.56657647D-05 -0.19562524D-05 -0.13256482D-04 -0.61099004D-05
  0.17132798D-04 -0.37401373D-03 -0.28677001D-03 -0.14311833D-03 -0.90216935D-04
 -0.69172623D-04 -0.34521987D-04 -0.18113331D-03 -0.13888153D-03 -0.69311619D-04
  0.16278584D-04  0.27026486D-04 -0.25982906D-04  0.49372114D-04  0.19752419D-03
  0.19078875D-04  0.93501293D-05  0.89670146D-04  0.21527755D-03  0.24922716D-04
 -0.20788437D-04 -0.38350607D-04 -0.61909772D-04 -0.80588127D-04 -0.68765995D-04
 -0.23743246D-04  0.56588523D-04  0.26081598D-04 -0.73135524D-04  0.65594362D-05
  0.50293596D-05  0.25100029D-05  0.38177831D-03  0.29272339D-03  0.14608949D-03
 -0.42098790D-04 -0.32278682D-04 -0.16109325D-04  0.17689390D-03  0.72604828D-04
 -0.10918255D-04  0.83245780D-04 -0.73811990D-04  0.21918147D-03 -0.37696163D-04