 Entering Gaussian System, Link 0=g16
 Input=test.gjf
 Output=test.log
 Initial command:
 /home/zengyun1/App/g16/l1.exe "/home/zengyun1/App/g16/scratch/Gau-15847.inp" -scrdir="/home/zengyun1/App/g16/scratch/"
 Default is to use a total of  15 processors:
                               15 via shared-memory
                                1 via Linda
 Entering Link 1 = /home/zengyun1/App/g16/l1.exe PID=     15849.
  
 Copyright (c) 1988-2019, Gaussian, Inc.  All Rights Reserved.
  
 This is part of the Gaussian(R) 16 program.  It is based on
 the Gaussian(R) 09 system (copyright 2009, Gaussian, Inc.),
 the Gaussian(R) 03 system (copyright 2003, Gaussian, Inc.),
 the Gaussian(R) 98 system (copyright 1998, Gaussian, Inc.),
 the Gaussian(R) 94 system (copyright 1995, Gaussian, Inc.),
 the Gaussian 92(TM) system (copyright 1992, Gaussian, Inc.),
 the Gaussian 90(TM) system (copyright 1990, Gaussian, Inc.),
 the Gaussian 88(TM) system (copyright 1988, Gaussian, Inc.),
 the Gaussian 86(TM) system (copyright 1986, Carnegie Mellon
 University), and the Gaussian 82(TM) system (copyright 1983,
 Carnegie Mellon University). Gaussian is a federally registered
 trademark of Gaussian, Inc.
  
 This software contains proprietary and confidential information,
 including trade secrets, belonging to Gaussian, Inc.
  
 This software is provided under written license and may be
 used, copied, transmitted, or stored only in accord with that
 written license.
  
 The following legend is applicable only to US Government
 contracts under FAR:
  
                    RESTRICTED RIGHTS LEGEND
  
 Use, reproduction and disclosure by the US Government is
 subject to restrictions as set forth in subparagraphs (a)
 and (c) of the Commercial Computer Software - Restricted
 Rights clause in FAR 52.227-19.
  
 Gaussian, Inc.
 340 Quinnipiac St., Bldg. 40, Wallingford CT 06492
  
  
 ---------------------------------------------------------------
 Warning -- This program may not be used in any manner that
 competes with the business of Gaussian, Inc. or will provide
 assistance to any competitor of Gaussian, Inc.  The licensee
 of this program is prohibited from giving any competitor of
 Gaussian, Inc. access to this program.  By using this program,
 the user acknowledges that Gaussian, Inc. is engaged in the
 business of creating and licensing software in the field of
 computational chemistry and represents and warrants to the
 licensee that it is not a competitor of Gaussian, Inc. and that
 it will not use this program in any manner prohibited above.
 ---------------------------------------------------------------
  

 Cite this work as:
 Gaussian 16, Revision C.01,
 M. J. Frisch, G. W. Trucks, H. B. Schlegel, G. E. Scuseria, 
 M. A. Robb, J. R. Cheeseman, G. Scalmani, V. Barone, 
 G. A. Petersson, H. Nakatsuji, X. Li, M. Caricato, A. V. Marenich, 
 J. Bloino, B. G. Janesko, R. Gomperts, B. Mennucci, H. P. Hratchian, 
 J. V. Ortiz, A. F. Izmaylov, J. L. Sonnenberg, D. Williams-Young, 
 F. Ding, F. Lipparini, F. Egidi, J. Goings, B. Peng, A. Petrone, 
 T. Henderson, D. Ranasinghe, V. G. Zakrzewski, J. Gao, N. Rega, 
 G. Zheng, W. Liang, M. Hada, M. Ehara, K. Toyota, R. Fukuda, 
 J. Hasegawa, M. Ishida, T. Nakajima, Y. Honda, O. Kitao, H. Nakai, 
 T. Vreven, K. Throssell, J. A. Montgomery, Jr., J. E. Peralta, 
 F. Ogliaro, M. J. Bearpark, J. J. Heyd, E. N. Brothers, K. N. Kudin, 
 V. N. Staroverov, T. A. Keith, R. Kobayashi, J. Normand, 
 K. Raghavachari, A. P. Rendell, J. C. Burant, S. S. Iyengar, 
 J. Tomasi, M. Cossi, J. M. Millam, M. Klene, C. Adamo, R. Cammi, 
 J. W. Ochterski, R. L. Martin, K. Morokuma, O. Farkas, 
 J. B. Foresman, and D. J. Fox, Gaussian, Inc., Wallingford CT, 2019.
 
 ******************************************
 Gaussian 16:  ES64L-G16RevC.01  3-Jul-2019
                17-Oct-2024 
 ******************************************
 %chk=test.chk
 --------------------------------
 #p b3lyp/6-31g(d) em=gd3 pop=NBO
 --------------------------------
 1/38=1,172=1/1;
 2/12=2,17=6,18=5,40=1/2;
 3/5=1,6=6,7=1,11=2,25=1,30=1,74=-5,124=31/1,2,3;
 4//1;
 5/5=2,38=5/2;
 6/7=2,8=2,9=2,10=2,28=1,40=1/1,7;
 99/5=1,9=1/99;
 Leave Link    1 at Thu Oct 17 10:24:36 2024, MaxMem=           0 cpu:               0.4 elap:               0.0
 (Enter /home/zengyun1/App/g16/l101.exe)
 -------------------
 Title Card Required
 -------------------
 Symbolic Z-matrix:
 Charge =  0 Multiplicity = 1
 C                    -1.07535  -2.12639  -0.00102 
 C                    -0.04815  -1.46874  -0.00171 
 C                     1.11754  -0.68058   0.00687 
 C                     1.12696   0.68058  -0.00463 
 C                    -0.04951   1.46884  -0.00313 
 C                    -1.07149   2.12629   0.00363 
 N                    -2.23518  -2.78601  -0.02964 
 H                     2.07227  -1.20446   0.01878 
 H                     2.0854    1.19516  -0.01388 
 C                    -2.33172   2.87434   0.0377 
 C                    -2.34617  -4.09975   0.65114 
 C                    -3.48144  -1.98784   0.08127 
 C                    -3.52945   1.93457  -0.21649 
 H                    -2.31363   3.62181  -0.77028 
 C                    -2.49557   3.62972   1.37336 
 C                    -3.6968   -4.12022   1.37984 
 H                    -2.3055   -4.91177  -0.08411 
 H                    -1.52148  -4.22607   1.36235 
 C                    -4.62634  -2.87418  -0.4148 
 C                    -3.71317  -1.61637   1.55498 
 H                    -3.37673  -1.10568  -0.55405 
 H                    -3.42246   1.4108   -1.172 
 H                    -4.4662    2.50398  -0.23504 
 H                    -3.59715   1.18472   0.57976 
 H                    -1.65758   4.31237   1.54607 
 H                    -3.42448   4.21226   1.36859 
 H                    -2.53458   2.92222   2.20919 
 O                    -4.75794  -4.03618   0.42096 
 C                    -3.79985  -2.94359   2.36472 
 H                    -3.8303   -5.08031   1.88619 
 H                    -5.57128  -2.31596  -0.38618 
 H                    -4.4399   -3.19288  -1.44875 
 H                    -4.63354  -1.02855   1.6489 
 H                    -2.8844   -0.98715   1.89647 
 H                    -2.9984   -3.0111    3.11052 
 H                    -4.752    -3.02032   2.89714 
 
 ITRead=  0  0  0  0  0  0  0  0  0  0  0  0  0  0  0  0  0  0  0  0
 ITRead=  0  0  0  0  0  0  0  0  0  0  0  0  0  0  0  0
 MicOpt= -1 -1 -1 -1 -1 -1 -1 -1 -1 -1 -1 -1 -1 -1 -1 -1 -1 -1 -1 -1
 MicOpt= -1 -1 -1 -1 -1 -1 -1 -1 -1 -1 -1 -1 -1 -1 -1 -1
 NAtoms=     36 NQM=       36 NQMF=       0 NMMI=      0 NMMIF=      0
                NMic=       0 NMicF=      0.
                    Isotopes and Nuclear Properties:
 (Nuclear quadrupole moments (NQMom) in fm**2, nuclear magnetic moments (NMagM)
  in nuclear magnetons)

  Atom         1           2           3           4           5           6           7           8           9          10
 IAtWgt=          12          12          12          12          12          12          14           1           1          12
 AtmWgt=  12.0000000  12.0000000  12.0000000  12.0000000  12.0000000  12.0000000  14.0030740   1.0078250   1.0078250  12.0000000
 NucSpn=           0           0           0           0           0           0           2           1           1           0
 AtZEff=  -0.0000000  -0.0000000  -0.0000000  -0.0000000  -0.0000000  -0.0000000  -0.0000000  -0.0000000  -0.0000000  -0.0000000
 NQMom=    0.0000000   0.0000000   0.0000000   0.0000000   0.0000000   0.0000000   2.0440000   0.0000000   0.0000000   0.0000000
 NMagM=    0.0000000   0.0000000   0.0000000   0.0000000   0.0000000   0.0000000   0.4037610   2.7928460   2.7928460   0.0000000
 AtZNuc=   6.0000000   6.0000000   6.0000000   6.0000000   6.0000000   6.0000000   7.0000000   1.0000000   1.0000000   6.0000000

  Atom        11          12          13          14          15          16          17          18          19          20
 IAtWgt=          12          12          12           1          12          12           1           1          12          12
 AtmWgt=  12.0000000  12.0000000  12.0000000   1.0078250  12.0000000  12.0000000   1.0078250   1.0078250  12.0000000  12.0000000
 NucSpn=           0           0           0           1           0           0           1           1           0           0
 AtZEff=  -0.0000000  -0.0000000  -0.0000000  -0.0000000  -0.0000000  -0.0000000  -0.0000000  -0.0000000  -0.0000000  -0.0000000
 NQMom=    0.0000000   0.0000000   0.0000000   0.0000000   0.0000000   0.0000000   0.0000000   0.0000000   0.0000000   0.0000000
 NMagM=    0.0000000   0.0000000   0.0000000   2.7928460   0.0000000   0.0000000   2.7928460   2.7928460   0.0000000   0.0000000
 AtZNuc=   6.0000000   6.0000000   6.0000000   1.0000000   6.0000000   6.0000000   1.0000000   1.0000000   6.0000000   6.0000000

  Atom        21          22          23          24          25          26          27          28          29          30
 IAtWgt=           1           1           1           1           1           1           1          16          12           1
 AtmWgt=   1.0078250   1.0078250   1.0078250   1.0078250   1.0078250   1.0078250   1.0078250  15.9949146  12.0000000   1.0078250
 NucSpn=           1           1           1           1           1           1           1           0           0           1
 AtZEff=  -0.0000000  -0.0000000  -0.0000000  -0.0000000  -0.0000000  -0.0000000  -0.0000000  -0.0000000  -0.0000000  -0.0000000
 NQMom=    0.0000000   0.0000000   0.0000000   0.0000000   0.0000000   0.0000000   0.0000000   0.0000000   0.0000000   0.0000000
 NMagM=    2.7928460   2.7928460   2.7928460   2.7928460   2.7928460   2.7928460   2.7928460   0.0000000   0.0000000   2.7928460
 AtZNuc=   1.0000000   1.0000000   1.0000000   1.0000000   1.0000000   1.0000000   1.0000000   8.0000000   6.0000000   1.0000000

  Atom        31          32          33          34          35          36
 IAtWgt=           1           1           1           1           1           1
 AtmWgt=   1.0078250   1.0078250   1.0078250   1.0078250   1.0078250   1.0078250
 NucSpn=           1           1           1           1           1           1
 AtZEff=  -0.0000000  -0.0000000  -0.0000000  -0.0000000  -0.0000000  -0.0000000
 NQMom=    0.0000000   0.0000000   0.0000000   0.0000000   0.0000000   0.0000000
 NMagM=    2.7928460   2.7928460   2.7928460   2.7928460   2.7928460   2.7928460
 AtZNuc=   1.0000000   1.0000000   1.0000000   1.0000000   1.0000000   1.0000000
 Leave Link  101 at Thu Oct 17 10:24:36 2024, MaxMem=  6710886400 cpu:               1.7 elap:               0.1
 (Enter /home/zengyun1/App/g16/l202.exe)
                          Input orientation:                          
 ---------------------------------------------------------------------
 Center     Atomic      Atomic             Coordinates (Angstroms)
 Number     Number       Type             X           Y           Z
 ---------------------------------------------------------------------
      1          6           0       -1.075347   -2.126391   -0.001024
      2          6           0       -0.048150   -1.468735   -0.001710
      3          6           0        1.117540   -0.680582    0.006873
      4          6           0        1.126959    0.680582   -0.004631
      5          6           0       -0.049512    1.468836   -0.003133
      6          6           0       -1.071490    2.126289    0.003625
      7          7           0       -2.235179   -2.786008   -0.029637
      8          1           0        2.072268   -1.204463    0.018781
      9          1           0        2.085399    1.195164   -0.013883
     10          6           0       -2.331724    2.874339    0.037702
     11          6           0       -2.346174   -4.099746    0.651142
     12          6           0       -3.481441   -1.987844    0.081272
     13          6           0       -3.529451    1.934568   -0.216492
     14          1           0       -2.313628    3.621811   -0.770276
     15          6           0       -2.495565    3.629719    1.373358
     16          6           0       -3.696799   -4.120221    1.379838
     17          1           0       -2.305496   -4.911773   -0.084114
     18          1           0       -1.521478   -4.226075    1.362345
     19          6           0       -4.626342   -2.874175   -0.414804
     20          6           0       -3.713167   -1.616369    1.554982
     21          1           0       -3.376727   -1.105676   -0.554050
     22          1           0       -3.422462    1.410800   -1.171998
     23          1           0       -4.466198    2.503975   -0.235041
     24          1           0       -3.597152    1.184718    0.579759
     25          1           0       -1.657577    4.312373    1.546073
     26          1           0       -3.424481    4.212260    1.368585
     27          1           0       -2.534579    2.922218    2.209189
     28          8           0       -4.757941   -4.036183    0.420962
     29          6           0       -3.799848   -2.943586    2.364717
     30          1           0       -3.830297   -5.080308    1.886194
     31          1           0       -5.571278   -2.315957   -0.386179
     32          1           0       -4.439901   -3.192885   -1.448752
     33          1           0       -4.633538   -1.028548    1.648903
     34          1           0       -2.884402   -0.987149    1.896465
     35          1           0       -2.998402   -3.011104    3.110525
     36          1           0       -4.751997   -3.020320    2.897135
 ---------------------------------------------------------------------
                    Distance matrix (angstroms):
                    1          2          3          4          5
     1  C    0.000000
     2  C    1.219691   0.000000
     3  C    2.626629   1.407157   0.000000
     4  C    3.567809   2.449582   1.361245   0.000000
     5  C    3.738716   2.937572   2.445835   1.416132   0.000000
     6  C    4.252684   3.737840   3.559549   2.631219   1.215207
     7  N    1.334587   2.553250   3.959151   4.829269   4.783465
     8  H    3.279912   2.136921   1.089082   2.108922   3.413057
     9  H    4.585107   3.412995   2.110830   1.087882   2.152407
    10  C    5.156286   4.906990   4.953366   4.095955   2.680597
    11  C    2.436073   3.553780   4.909489   5.945101   6.059029
    12  C    2.411484   3.473305   4.781746   5.325902   4.871745
    13  C    4.749783   4.873198   5.336987   4.826958   3.517443
    14  H    5.930170   5.624655   5.557649   4.590717   3.217146
    15  C    6.085947   5.820214   5.787962   4.870210   3.542219
    16  C    3.571295   4.717170   6.074044   6.945006   6.815634
    17  H    3.046067   4.117877   5.443200   6.562202   6.768175
    18  H    2.542928   3.410904   4.623012   5.740917   6.038479
    19  C    3.652391   4.806844   6.162941   6.775324   6.322863
    20  C    3.104734   3.984650   5.158301   5.579892   5.036723
    21  H    2.577605   3.393570   4.549041   4.876040   4.242874
    22  H    4.403618   4.587731   5.135682   4.753230   3.570211
    23  H    5.743947   5.946093   6.432578   5.887381   4.542291
    24  H    4.202410   4.469266   5.102535   4.786741   3.606416
    25  H    6.647570   6.197346   5.916081   4.832001   3.615469
    26  H    6.897301   6.749150   6.813525   5.922337   4.560526
    27  H    5.701127   5.509163   5.582861   4.830403   3.630736
    28  O    4.169757   5.380759   6.778850   7.553876   7.256335
    29  C    3.699655   4.674441   5.904348   6.559103   6.256293
    30  H    4.458359   5.559881   6.882625   7.831824   7.794561
    31  H    4.516379   5.600941   6.897045   7.347871   6.705317
    32  H    3.814911   4.934987   6.270220   6.933914   6.564828
    33  H    4.072867   4.893268   5.991013   6.232064   5.475349
    34  H    2.858499   3.446639   4.436224   4.741994   4.204395
    35  H    3.763322   4.557290   5.657293   6.352271   6.201668
    36  H    4.766150   5.739067   6.948342   7.528549   7.118809
                    6          7          8          9         10
     6  C    0.000000
     7  N    5.048360   0.000000
     8  H    4.580104   4.588870   0.000000
     9  H    3.291390   5.875149   2.399885   0.000000
    10  C    1.465923   5.661571   6.002677   4.725808   0.000000
    11  C    6.388083   1.483808   5.320261   6.936654   7.001027
    12  C    4.768646   1.484094   5.609035   6.413291   4.996456
    13  C    2.475233   4.898356   6.425584   5.666949   1.543481
    14  H    2.092466   6.450957   6.568989   5.080569   1.100850
    15  C    2.482833   6.572499   6.787436   5.369984   1.543185
    16  C    6.914123   2.429625   6.605774   7.976816   7.251802
    17  H    7.145963   2.127625   5.737556   7.521939   7.787109
    18  H    6.511616   2.126212   4.883678   6.655329   7.268222
    19  C    6.149528   2.423590   6.917175   7.859245   6.206081
    20  C    4.836595   2.462422   6.000070   6.632452   4.937305
    21  H    4.008830   2.098013   5.479912   5.951510   4.157249
    22  H    2.724167   4.508639   6.200775   5.632429   2.189756
    23  H    3.423982   5.744872   7.521202   6.684708   2.183469
    24  H    2.756348   4.241816   6.177799   5.713485   2.179439
    25  H    2.738906   7.294073   6.832265   5.114716   2.190342
    26  H    3.427967   7.235000   7.834354   6.432174   2.180688
    27  H    2.763810   6.138878   6.561282   5.410080   2.181467
    28  O    7.193063   2.851369   7.404873   8.624812   7.334080
    29  C    6.222727   2.864603   6.558179   7.577805   6.435731
    30  H    7.942929   3.388012   7.304086   8.831042   8.302954
    31  H    6.335108   3.387865   7.734546   8.431564   6.132989
    32  H    6.461362   2.653344   6.965330   7.993332   6.592811
    33  H    5.034692   3.414424   6.903338   7.270066   4.809038
    34  H    4.069765   2.714268   5.304856   5.754202   4.321058
    35  H    6.305444   3.239413   6.207618   7.300661   6.672716
    36  H    6.957450   3.867204   7.625802   8.543671   6.984346
                   11         12         13         14         15
    11  C    0.000000
    12  C    2.464490   0.000000
    13  C    6.210143   3.933991   0.000000
    14  H    7.851365   5.792853   2.152136   0.000000
    15  C    7.764570   5.847944   2.543635   2.151355   0.000000
    16  C    1.534798   2.505930   6.263924   8.153233   7.842485
    17  H    1.096195   3.155877   6.956147   8.561130   8.667032
    18  H    1.096308   3.239179   6.669198   8.170978   7.915963
    19  C    2.799541   1.530514   4.936244   6.904552   7.073781
    20  C    2.975358   1.537372   3.972534   5.899497   5.388597
    21  H    3.388065   1.092163   3.062736   4.850368   5.187997
    22  H    5.903249   3.622837   1.094884   2.505886   3.501653
    23  H    6.992064   4.609364   1.096386   2.483866   2.781662
    24  H    5.430985   3.213569   1.095844   3.067483   2.796663
    25  H    8.487568   6.720480   3.502071   2.504546   1.094564
    26  H    8.412307   6.332591   2.776935   2.481401   1.096477
    27  H    7.195206   5.434454   2.801634   3.068462   1.095761
    28  O    2.423560   2.437321   6.129062   8.126413   8.049314
    29  C    2.527096   2.495786   5.525590   7.425730   6.774385
    30  H    2.165520   3.597607   7.329412   9.224098   8.826612
    31  H    3.828738   2.166469   4.718561   6.783576   6.921491
    32  H    3.100910   2.170655   5.351463   7.170875   7.634964
    33  H    3.957249   2.169111   3.671343   5.732386   5.132865
    34  H    3.395406   2.157028   3.662937   5.355353   4.662650
    35  H    2.767509   3.233692   5.984206   7.715251   6.882668
    36  H    3.463759   3.257208   5.978311   7.969533   7.185847
                   16         17         18         19         20
    16  C    0.000000
    17  H    2.169201   0.000000
    18  H    2.177965   1.782445   0.000000
    19  C    2.374325   3.106041   3.824405   0.000000
    20  C    2.510024   3.940541   3.413382   2.509187   0.000000
    21  H    3.595810   3.981802   4.105047   2.169911   2.195909
    22  H    6.097485   6.511992   6.466142   4.514829   4.084689
    23  H    6.861471   7.725589   7.517752   5.383536   4.555049
    24  H    5.365858   6.267081   5.847867   4.303835   2.968267
    25  H    8.677252   9.389472   8.541509   8.019045   6.274991
    26  H    8.336937   9.306473   8.650258   7.405573   5.838750
    27  H    7.185717   8.165974   7.269224   6.697685   4.734536
    28  O    1.432665   2.652592   3.375937   1.437388   2.869330
    29  C    1.537880   3.479026   2.800089   2.900629   1.557141
    30  H    1.093611   2.497105   2.516898   3.285621   3.481709
    31  H    3.144496   4.182683   4.806950   1.097876   2.776708
    32  H    3.068073   3.061453   4.181739   1.097900   3.469289
    33  H    3.241654   4.847944   4.471153   2.768624   1.096101
    34  H    3.277657   4.434016   3.554362   3.455023   1.095162
    35  H    2.170985   3.781320   2.591060   3.885471   2.208141
    36  H    2.150678   4.295440   3.774345   3.317542   2.202640
                   21         22         23         24         25
    21  H    0.000000
    22  H    2.591641   0.000000
    23  H    3.783952   1.778287   0.000000
    24  H    2.565154   1.774903   1.777520   0.000000
    25  H    6.059806   4.349926   3.785634   3.804989   0.000000
    26  H    5.655020   3.781897   2.564182   3.133380   1.778616
    27  H    4.956676   3.808562   3.143301   2.608258   1.772396
    28  O    3.383234   5.830150   6.579447   5.350743   8.976442
    29  C    3.475075   5.622406   6.072782   4.502228   7.609760
    30  H    4.685959   7.187027   7.900972   6.404036   9.646702
    31  H    2.511775   4.373058   4.947301   4.133393   7.936335
    32  H    2.507443   4.722890   5.824775   4.897805   8.546298
    33  H    2.537425   3.921047   4.006990   2.667529   6.114929
    34  H    2.502290   3.931302   4.385584   2.637941   5.450946
    35  H    4.147637   6.170338   6.615386   4.936416   7.607801
    36  H    4.179463   6.161196   6.356889   4.938243   8.072744
                   26         27         28         29         30
    26  H    0.000000
    27  H    1.778412   0.000000
    28  O    8.409097   7.520667   0.000000
    29  C    7.234591   6.002729   2.426910   0.000000
    30  H    9.315816   8.113177   2.024259   2.189861   0.000000
    31  H    7.092641   6.587560   2.066923   3.331563   3.979489
    32  H    7.987781   7.375993   2.075604   3.874837   3.880187
    33  H    5.385765   4.508670   3.251028   2.207895   4.137422
    34  H    5.253970   3.937426   3.870900   2.210192   4.201044
    35  H    7.442640   6.019290   3.373502   1.096861   2.544139
    36  H    7.510591   6.379966   2.676461   1.093593   2.472869
                   31         32         33         34         35
    31  H    0.000000
    32  H    1.782716   0.000000
    33  H    2.584248   3.783823   0.000000
    34  H    3.767691   4.298293   1.767053   0.000000
    35  H    4.396574   4.785182   2.956440   2.362907   0.000000
    36  H    3.456516   4.360495   2.353566   2.936501   1.766555
                   36
    36  H    0.000000
 Stoichiometry    C15H19NO
 Framework group  C1[X(C15H19NO)]
 Deg. of freedom   102
 Full point group                 C1      NOp   1
 Largest Abelian subgroup         C1      NOp   1
 Largest concise Abelian subgroup C1      NOp   1
                         Standard orientation:                         
 ---------------------------------------------------------------------
 Center     Atomic      Atomic             Coordinates (Angstroms)
 Number     Number       Type             X           Y           Z
 ---------------------------------------------------------------------
      1          6           0        0.560458    1.669077   -0.293302
      2          6           0       -0.448431    2.332702   -0.121866
      3          6           0       -1.630839    3.067638    0.082759
      4          6           0       -2.880182    2.527415    0.099784
      5          6           0       -3.134188    1.144072   -0.065366
      6          6           0       -3.329447   -0.047309   -0.203980
      7          7           0        1.621394    0.890157   -0.514262
      8          1           0       -1.529543    4.141675    0.232036
      9          1           0       -3.731656    3.187816    0.249280
     10          6           0       -3.510841   -1.494546   -0.350721
     11          6           0        2.921550    1.229760    0.114984
     12          6           0        1.394818   -0.574977   -0.581957
     13          6           0       -2.196858   -2.164314   -0.805906
     14          1           0       -4.266582   -1.672259   -1.131197
     15          6           0       -4.029042   -2.126866    0.958118
     16          6           0        3.534698   -0.081498    0.625137
     17          1           0        3.588749    1.693217   -0.621017
     18          1           0        2.767202    1.931866    0.942702
     19          6           0        2.619504   -1.186191   -1.266818
     20          6           0        1.265713   -1.131986    0.845132
     21          1           0        0.495451   -0.751872   -1.175814
     22          1           0       -1.837288   -1.727928   -1.743481
     23          1           0       -2.347452   -3.239598   -0.958056
     24          1           0       -1.420210   -2.028953   -0.044743
     25          1           0       -4.971774   -1.667742    1.272017
     26          1           0       -4.193643   -3.202217    0.821048
     27          1           0       -3.299311   -1.987965    1.763657
     28          8           0        3.801567   -0.947307   -0.484676
     29          6           0        2.578934   -0.782187    1.605251
     30          1           0        4.506350    0.118108    1.085610
     31          1           0        2.486189   -2.270672   -1.373862
     32          1           0        2.753732   -0.750323   -2.265510
     33          1           0        1.100841   -2.214944    0.806973
     34          1           0        0.389089   -0.682184    1.323243
     35          1           0        2.382816   -0.129523    2.464712
     36          1           0        3.069659   -1.683900    1.982141
 ---------------------------------------------------------------------
 Rotational constants (GHZ):           0.6780905           0.2780465           0.2197571
 Leave Link  202 at Thu Oct 17 10:24:36 2024, MaxMem=  6710886400 cpu:               0.0 elap:               0.0
 (Enter /home/zengyun1/App/g16/l301.exe)
 Standard basis: 6-31G(d) (6D, 7F)
 Ernie: Thresh=  0.10000D-02 Tol=  0.10000D-05 Strict=F.
 There are   293 symmetry adapted cartesian basis functions of A   symmetry.
 There are   293 symmetry adapted basis functions of A   symmetry.
   293 basis functions,   552 primitive gaussians,   293 cartesian basis functions
    62 alpha electrons       62 beta electrons
       nuclear repulsion energy      1158.9140717127 Hartrees.
 IExCor=  402 DFT=T Ex+Corr=B3LYP ExCW=0 ScaHFX=  0.200000
 ScaDFX=  0.800000  0.720000  1.000000  0.810000 ScalE2=  1.000000  1.000000
 IRadAn=      5 IRanWt=     -1 IRanGd=            0 ICorTp=0 IEmpDi=131
 NAtoms=   36 NActive=   36 NUniq=   36 SFac= 1.00D+00 NAtFMM=   60 NAOKFM=F Big=F
 Integral buffers will be    131072 words long.
 Raffenetti 2 integral format.
 Two-electron integral symmetry is turned on.
 R6Disp:  Grimme-D3 Dispersion energy=       -0.0335511031 Hartrees.
 Nuclear repulsion after empirical dispersion term =     1158.8805206097 Hartrees.
 Leave Link  301 at Thu Oct 17 10:24:36 2024, MaxMem=  6710886400 cpu:               0.3 elap:               0.0
 (Enter /home/zengyun1/App/g16/l302.exe)
 NPDir=0 NMtPBC=     1 NCelOv=     1 NCel=       1 NClECP=     1 NCelD=      1
         NCelK=      1 NCelE2=     1 NClLst=     1 CellRange=     0.0.
 One-electron integrals computed using PRISM.
 One-electron integral symmetry used in STVInt
 NBasis=   293 RedAO= T EigKep=  1.11D-04  NBF=   293
 NBsUse=   293 1.00D-06 EigRej= -1.00D+00 NBFU=   293
 Precomputing XC quadrature grid using
 IXCGrd= 4 IRadAn=           5 IRanWt=          -1 IRanGd=           0 AccXCQ= 0.00D+00.
 Generated NRdTot=       0 NPtTot=           0 NUsed=           0 NTot=          32
 NSgBfM=   293   293   293   293   293 MxSgAt=    36 MxSgA2=    36.
 Leave Link  302 at Thu Oct 17 10:24:36 2024, MaxMem=  6710886400 cpu:               4.1 elap:               0.3
 (Enter /home/zengyun1/App/g16/l303.exe)
 DipDrv:  MaxL=1.
 Leave Link  303 at Thu Oct 17 10:24:36 2024, MaxMem=  6710886400 cpu:               0.4 elap:               0.0
 (Enter /home/zengyun1/App/g16/l401.exe)
 ExpMin= 1.61D-01 ExpMax= 5.48D+03 ExpMxC= 8.25D+02 IAcc=3 IRadAn=         5 AccDes= 0.00D+00
 Harris functional with IExCor=  402 and IRadAn=       5 diagonalized for initial guess.
 HarFok:  IExCor=  402 AccDes= 0.00D+00 IRadAn=         5 IDoV= 1 UseB2=F ITyADJ=14
 ICtDFT=  3500011 ScaDFX=  1.000000  1.000000  1.000000  1.000000
 FoFCou: FMM=F IPFlag=           0 FMFlag=      100000 FMFlg1=           0
         NFxFlg=           0 DoJE=T BraDBF=F KetDBF=T FulRan=T
         wScrn=  0.000000 ICntrl=       500 IOpCl=  0 I1Cent=   200000004 NGrid=           0
         NMat0=    1 NMatS0=      1 NMatT0=    0 NMatD0=    1 NMtDS0=    0 NMtDT0=    0
 Petite list used in FoFCou.
 Harris En= -712.950700651911    
 JPrj=0 DoOrth=F DoCkMO=F.
 Leave Link  401 at Thu Oct 17 10:24:38 2024, MaxMem=  6710886400 cpu:              19.8 elap:               1.3
 (Enter /home/zengyun1/App/g16/l502.exe)
 Integral symmetry usage will be decided dynamically.
 Closed shell SCF:
 Using DIIS extrapolation, IDIIS=  1040.
 NGot=  6710886400 LenX=  6710706040 LenY=  6710619750
 Requested convergence on RMS density matrix=1.00D-08 within 128 cycles.
 Requested convergence on MAX density matrix=1.00D-06.
 Requested convergence on             energy=1.00D-06.
 No special actions if energy rises.
 Fock matrices will be formed incrementally for  20 cycles.
 Integral accuracy reduced to 1.0D-05 until final iterations.

 Cycle   1  Pass 0  IDiag  1:
 FoFJK:  IHMeth= 1 ICntrl=       0 DoSepK=F KAlg= 0 I1Cent=           0 FoldK=F
 IRaf= 820000000 NMat=       1 IRICut=       1 DoRegI=T DoRafI=F ISym2E= 0 IDoP0=0 IntGTp=1.
 FoFCou: FMM=F IPFlag=           0 FMFlag=      100000 FMFlg1=           0
         NFxFlg=           0 DoJE=F BraDBF=F KetDBF=F FulRan=T
         wScrn=  0.000000 ICntrl=         0 IOpCl=  0 I1Cent=           0 NGrid=           0
         NMat0=    1 NMatS0=      1 NMatT0=    0 NMatD0=    1 NMtDS0=    0 NMtDT0=    0
 Symmetry not used in FoFCou.
 E= -712.461656665969    
 DIIS: error= 3.09D-02 at cycle   1 NSaved=   1.
 NSaved= 1 IEnMin= 1 EnMin= -712.461656665969     IErMin= 1 ErrMin= 3.09D-02
 ErrMax= 3.09D-02  0.00D+00 EMaxC= 1.00D-01 BMatC= 3.95D-01 BMatP= 3.95D-01
 IDIUse=3 WtCom= 6.91D-01 WtEn= 3.09D-01
 Coeff-Com:  0.100D+01
 Coeff-En:   0.100D+01
 Coeff:      0.100D+01
 Gap=     0.189 Goal=   None    Shift=    0.000
 GapD=    0.189 DampG=1.000 DampE=0.500 DampFc=0.5000 IDamp=-1.
 Damping current iteration by 5.00D-01
 RMSDP=5.76D-03 MaxDP=1.36D-01              OVMax= 2.27D-01

 Cycle   2  Pass 0  IDiag  1:
 RMSU=  2.71D-03    CP:  9.55D-01
 E= -712.653737627322     Delta-E=       -0.192080961353 Rises=F Damp=T
 DIIS: error= 6.09D-03 at cycle   2 NSaved=   2.
 NSaved= 2 IEnMin= 2 EnMin= -712.653737627322     IErMin= 2 ErrMin= 6.09D-03
 ErrMax= 6.09D-03  0.00D+00 EMaxC= 1.00D-01 BMatC= 3.18D-02 BMatP= 3.95D-01
 IDIUse=3 WtCom= 9.39D-01 WtEn= 6.09D-02
 Coeff-Com:  0.445D-01 0.955D+00
 Coeff-En:   0.678D-01 0.932D+00
 Coeff:      0.459D-01 0.954D+00
 Gap=     0.157 Goal=   None    Shift=    0.000
 RMSDP=2.83D-03 MaxDP=1.75D-01 DE=-1.92D-01 OVMax= 2.42D-01

 Cycle   3  Pass 0  IDiag  1:
 RMSU=  2.57D-03    CP:  9.04D-01  1.19D+00
 E= -712.833577680710     Delta-E=       -0.179840053388 Rises=F Damp=F
 DIIS: error= 1.27D-02 at cycle   3 NSaved=   3.
 NSaved= 3 IEnMin= 3 EnMin= -712.833577680710     IErMin= 2 ErrMin= 6.09D-03
 ErrMax= 1.27D-02  0.00D+00 EMaxC= 1.00D-01 BMatC= 5.36D-02 BMatP= 3.18D-02
 IDIUse=2 WtCom= 0.00D+00 WtEn= 1.00D+00
 Coeff-En:   0.000D+00 0.000D+00 0.100D+01
 Coeff:      0.000D+00 0.000D+00 0.100D+01
 Gap=     0.186 Goal=   None    Shift=    0.000
 RMSDP=3.41D-03 MaxDP=2.08D-01 DE=-1.80D-01 OVMax= 2.46D-01

 Cycle   4  Pass 0  IDiag  1:
 RMSU=  1.88D-03    CP:  9.45D-01  1.12D+00 -5.53D-02
 E= -712.546819884582     Delta-E=        0.286757796127 Rises=F Damp=F
 DIIS: error= 2.85D-02 at cycle   4 NSaved=   4.
 NSaved= 4 IEnMin= 3 EnMin= -712.833577680710     IErMin= 2 ErrMin= 6.09D-03
 ErrMax= 2.85D-02  0.00D+00 EMaxC= 1.00D-01 BMatC= 3.35D-01 BMatP= 3.18D-02
 IDIUse=2 WtCom= 0.00D+00 WtEn= 1.00D+00
 Coeff-En:   0.000D+00 0.000D+00 0.800D+00 0.200D+00
 Coeff:      0.000D+00 0.000D+00 0.800D+00 0.200D+00
 Gap=     0.167 Goal=   None    Shift=    0.000
 RMSDP=1.71D-03 MaxDP=1.10D-01 DE= 2.87D-01 OVMax= 1.43D-01

 Cycle   5  Pass 0  IDiag  1:
 RMSU=  2.85D-04    CP:  9.26D-01  1.15D+00  4.44D-01  4.57D-01
 E= -712.859387374632     Delta-E=       -0.312567490050 Rises=F Damp=F
 DIIS: error= 7.48D-03 at cycle   5 NSaved=   5.
 NSaved= 5 IEnMin= 5 EnMin= -712.859387374632     IErMin= 2 ErrMin= 6.09D-03
 ErrMax= 7.48D-03  0.00D+00 EMaxC= 1.00D-01 BMatC= 2.90D-02 BMatP= 3.18D-02
 IDIUse=3 WtCom= 9.25D-01 WtEn= 7.48D-02
 Coeff-Com:  0.814D-02 0.327D-02 0.353D+00-0.657D-01 0.701D+00
 Coeff-En:   0.000D+00 0.000D+00 0.389D+00 0.000D+00 0.611D+00
 Coeff:      0.753D-02 0.302D-02 0.355D+00-0.608D-01 0.695D+00
 Gap=     0.157 Goal=   None    Shift=    0.000
 RMSDP=7.36D-04 MaxDP=3.99D-02 DE=-3.13D-01 OVMax= 7.33D-02

 Cycle   6  Pass 0  IDiag  1:
 RMSU=  1.11D-04    CP:  9.18D-01  1.15D+00  6.72D-01  2.51D-01  6.96D-01
 E= -712.888222764596     Delta-E=       -0.028835389964 Rises=F Damp=F
 DIIS: error= 1.21D-03 at cycle   6 NSaved=   6.
 NSaved= 6 IEnMin= 6 EnMin= -712.888222764596     IErMin= 6 ErrMin= 1.21D-03
 ErrMax= 1.21D-03  0.00D+00 EMaxC= 1.00D-01 BMatC= 4.11D-04 BMatP= 2.90D-02
 IDIUse=3 WtCom= 9.88D-01 WtEn= 1.21D-02
 Coeff-Com:  0.511D-02-0.859D-02 0.191D+00-0.672D-01 0.491D+00 0.388D+00
 Coeff-En:   0.000D+00 0.000D+00 0.000D+00 0.000D+00 0.000D+00 0.100D+01
 Coeff:      0.505D-02-0.849D-02 0.189D+00-0.664D-01 0.485D+00 0.395D+00
 Gap=     0.156 Goal=   None    Shift=    0.000
 RMSDP=7.58D-05 MaxDP=4.87D-03 DE=-2.88D-02 OVMax= 7.98D-03

 Cycle   7  Pass 0  IDiag  1:
 RMSU=  3.28D-05    CP:  9.18D-01  1.16D+00  6.71D-01  2.56D-01  7.76D-01
                    CP:  4.31D-01
 E= -712.888620007429     Delta-E=       -0.000397242834 Rises=F Damp=F
 DIIS: error= 1.88D-04 at cycle   7 NSaved=   7.
 NSaved= 7 IEnMin= 7 EnMin= -712.888620007429     IErMin= 7 ErrMin= 1.88D-04
 ErrMax= 1.88D-04  0.00D+00 EMaxC= 1.00D-01 BMatC= 1.90D-05 BMatP= 4.11D-04
 IDIUse=3 WtCom= 9.98D-01 WtEn= 1.88D-03
 Coeff-Com:  0.171D-02-0.311D-02 0.620D-01-0.263D-01 0.166D+00 0.205D+00
 Coeff-Com:  0.595D+00
 Coeff-En:   0.000D+00 0.000D+00 0.000D+00 0.000D+00 0.000D+00 0.000D+00
 Coeff-En:   0.100D+01
 Coeff:      0.171D-02-0.310D-02 0.619D-01-0.262D-01 0.166D+00 0.204D+00
 Coeff:      0.596D+00
 Gap=     0.156 Goal=   None    Shift=    0.000
 RMSDP=2.00D-05 MaxDP=8.04D-04 DE=-3.97D-04 OVMax= 1.35D-03

 Cycle   8  Pass 0  IDiag  1:
 RMSU=  1.28D-05    CP:  9.17D-01  1.16D+00  6.73D-01  2.56D-01  7.81D-01
                    CP:  4.62D-01  6.08D-01
 E= -712.888635442274     Delta-E=       -0.000015434845 Rises=F Damp=F
 DIIS: error= 8.52D-05 at cycle   8 NSaved=   8.
 NSaved= 8 IEnMin= 8 EnMin= -712.888635442274     IErMin= 8 ErrMin= 8.52D-05
 ErrMax= 8.52D-05  0.00D+00 EMaxC= 1.00D-01 BMatC= 3.76D-06 BMatP= 1.90D-05
 IDIUse=1 WtCom= 1.00D+00 WtEn= 0.00D+00
 Coeff-Com:  0.312D-03-0.566D-03 0.934D-02-0.533D-02 0.234D-01 0.637D-01
 Coeff-Com:  0.372D+00 0.537D+00
 Coeff:      0.312D-03-0.566D-03 0.934D-02-0.533D-02 0.234D-01 0.637D-01
 Coeff:      0.372D+00 0.537D+00
 Gap=     0.156 Goal=   None    Shift=    0.000
 RMSDP=8.11D-06 MaxDP=4.77D-04 DE=-1.54D-05 OVMax= 9.29D-04

 Initial convergence to 1.0D-05 achieved.  Increase integral accuracy.
 Cycle   9  Pass 1  IDiag  1:
 E= -712.888625857421     Delta-E=        0.000009584853 Rises=F Damp=F
 DIIS: error= 9.98D-05 at cycle   1 NSaved=   1.
 NSaved= 1 IEnMin= 1 EnMin= -712.888625857421     IErMin= 1 ErrMin= 9.98D-05
 ErrMax= 9.98D-05  0.00D+00 EMaxC= 1.00D-01 BMatC= 7.16D-07 BMatP= 7.16D-07
 IDIUse=1 WtCom= 1.00D+00 WtEn= 0.00D+00
 Coeff-Com:  0.100D+01
 Coeff:      0.100D+01
 Gap=     0.156 Goal=   None    Shift=    0.000
 RMSDP=8.11D-06 MaxDP=4.77D-04 DE= 9.58D-06 OVMax= 6.05D-04

 Cycle  10  Pass 1  IDiag  1:
 RMSU=  7.52D-05    CP:  1.00D+00
 E= -712.888625459341     Delta-E=        0.000000398080 Rises=F Damp=F
 DIIS: error= 6.50D-05 at cycle   2 NSaved=   2.
 NSaved= 2 IEnMin= 1 EnMin= -712.888625857421     IErMin= 2 ErrMin= 6.50D-05
 ErrMax= 6.50D-05  0.00D+00 EMaxC= 1.00D-01 BMatC= 1.00D-06 BMatP= 7.16D-07
 IDIUse=1 WtCom= 1.00D+00 WtEn= 0.00D+00
 Coeff-Com:  0.552D+00 0.448D+00
 Coeff:      0.552D+00 0.448D+00
 Gap=     0.156 Goal=   None    Shift=    0.000
 RMSDP=5.35D-06 MaxDP=2.89D-04 DE= 3.98D-07 OVMax= 5.22D-04

 Cycle  11  Pass 1  IDiag  1:
 RMSU=  5.34D-06    CP:  1.00D+00  1.00D+00
 E= -712.888626369180     Delta-E=       -0.000000909840 Rises=F Damp=F
 DIIS: error= 2.60D-05 at cycle   3 NSaved=   3.
 NSaved= 3 IEnMin= 3 EnMin= -712.888626369180     IErMin= 3 ErrMin= 2.60D-05
 ErrMax= 2.60D-05  0.00D+00 EMaxC= 1.00D-01 BMatC= 1.59D-07 BMatP= 7.16D-07
 IDIUse=1 WtCom= 1.00D+00 WtEn= 0.00D+00
 Coeff-Com:  0.539D-01 0.282D+00 0.664D+00
 Coeff:      0.539D-01 0.282D+00 0.664D+00
 Gap=     0.156 Goal=   None    Shift=    0.000
 RMSDP=1.90D-06 MaxDP=9.09D-05 DE=-9.10D-07 OVMax= 1.38D-04

 Cycle  12  Pass 1  IDiag  1:
 RMSU=  1.20D-06    CP:  1.00D+00  1.01D+00  7.48D-01
 E= -712.888626503130     Delta-E=       -0.000000133950 Rises=F Damp=F
 DIIS: error= 7.23D-06 at cycle   4 NSaved=   4.
 NSaved= 4 IEnMin= 4 EnMin= -712.888626503130     IErMin= 4 ErrMin= 7.23D-06
 ErrMax= 7.23D-06  0.00D+00 EMaxC= 1.00D-01 BMatC= 3.06D-08 BMatP= 1.59D-07
 IDIUse=1 WtCom= 1.00D+00 WtEn= 0.00D+00
 Coeff-Com:  0.117D-02 0.163D+00 0.450D+00 0.386D+00
 Coeff:      0.117D-02 0.163D+00 0.450D+00 0.386D+00
 Gap=     0.156 Goal=   None    Shift=    0.000
 RMSDP=8.00D-07 MaxDP=3.48D-05 DE=-1.34D-07 OVMax= 8.85D-05

 Cycle  13  Pass 1  IDiag  1:
 RMSU=  3.50D-07    CP:  1.00D+00  1.01D+00  7.56D-01  4.09D-01
 E= -712.888626532890     Delta-E=       -0.000000029760 Rises=F Damp=F
 DIIS: error= 2.06D-06 at cycle   5 NSaved=   5.
 NSaved= 5 IEnMin= 5 EnMin= -712.888626532890     IErMin= 5 ErrMin= 2.06D-06
 ErrMax= 2.06D-06  0.00D+00 EMaxC= 1.00D-01 BMatC= 1.90D-09 BMatP= 3.06D-08
 IDIUse=1 WtCom= 1.00D+00 WtEn= 0.00D+00
 Coeff-Com: -0.235D-02 0.927D-01 0.262D+00 0.261D+00 0.387D+00
 Coeff:     -0.235D-02 0.927D-01 0.262D+00 0.261D+00 0.387D+00
 Gap=     0.156 Goal=   None    Shift=    0.000
 RMSDP=2.00D-07 MaxDP=7.71D-06 DE=-2.98D-08 OVMax= 2.17D-05

 Cycle  14  Pass 1  IDiag  1:
 RMSU=  8.91D-08    CP:  1.00D+00  1.01D+00  7.54D-01  4.33D-01  5.05D-01
 E= -712.888626534869     Delta-E=       -0.000000001979 Rises=F Damp=F
 DIIS: error= 4.35D-07 at cycle   6 NSaved=   6.
 NSaved= 6 IEnMin= 6 EnMin= -712.888626534869     IErMin= 6 ErrMin= 4.35D-07
 ErrMax= 4.35D-07  0.00D+00 EMaxC= 1.00D-01 BMatC= 7.49D-11 BMatP= 1.90D-09
 IDIUse=1 WtCom= 1.00D+00 WtEn= 0.00D+00
 Coeff-Com: -0.150D-02 0.467D-01 0.132D+00 0.135D+00 0.235D+00 0.452D+00
 Coeff:     -0.150D-02 0.467D-01 0.132D+00 0.135D+00 0.235D+00 0.452D+00
 Gap=     0.156 Goal=   None    Shift=    0.000
 RMSDP=3.77D-08 MaxDP=2.00D-06 DE=-1.98D-09 OVMax= 3.74D-06

 Cycle  15  Pass 1  IDiag  1:
 RMSU=  3.40D-08    CP:  1.00D+00  1.01D+00  7.54D-01  4.32D-01  5.09D-01
                    CP:  8.23D-01
 E= -712.888626534933     Delta-E=       -0.000000000063 Rises=F Damp=F
 DIIS: error= 1.94D-07 at cycle   7 NSaved=   7.
 NSaved= 7 IEnMin= 7 EnMin= -712.888626534933     IErMin= 7 ErrMin= 1.94D-07
 ErrMax= 1.94D-07  0.00D+00 EMaxC= 1.00D-01 BMatC= 1.21D-11 BMatP= 7.49D-11
 IDIUse=1 WtCom= 1.00D+00 WtEn= 0.00D+00
 Coeff-Com: -0.645D-03 0.171D-01 0.475D-01 0.503D-01 0.997D-01 0.305D+00
 Coeff-Com:  0.481D+00
 Coeff:     -0.645D-03 0.171D-01 0.475D-01 0.503D-01 0.997D-01 0.305D+00
 Coeff:      0.481D+00
 Gap=     0.156 Goal=   None    Shift=    0.000
 RMSDP=1.52D-08 MaxDP=8.09D-07 DE=-6.34D-11 OVMax= 1.44D-06

 Cycle  16  Pass 1  IDiag  1:
 RMSU=  1.19D-08    CP:  1.00D+00  1.01D+00  7.53D-01  4.32D-01  5.18D-01
                    CP:  8.46D-01  7.58D-01
 E= -712.888626534943     Delta-E=       -0.000000000010 Rises=F Damp=F
 DIIS: error= 4.51D-08 at cycle   8 NSaved=   8.
 NSaved= 8 IEnMin= 8 EnMin= -712.888626534943     IErMin= 8 ErrMin= 4.51D-08
 ErrMax= 4.51D-08  0.00D+00 EMaxC= 1.00D-01 BMatC= 9.70D-13 BMatP= 1.21D-11
 IDIUse=1 WtCom= 1.00D+00 WtEn= 0.00D+00
 Coeff-Com:  0.109D-04-0.173D-02-0.556D-02-0.491D-02 0.976D-03 0.578D-01
 Coeff-Com:  0.249D+00 0.704D+00
 Coeff:      0.109D-04-0.173D-02-0.556D-02-0.491D-02 0.976D-03 0.578D-01
 Coeff:      0.249D+00 0.704D+00
 Gap=     0.156 Goal=   None    Shift=    0.000
 RMSDP=4.93D-09 MaxDP=1.93D-07 DE=-1.05D-11 OVMax= 4.81D-07

 SCF Done:  E(RB3LYP) =  -712.888626535     A.U. after   16 cycles
            NFock= 16  Conv=0.49D-08     -V/T= 2.0096
 KE= 7.060774314372D+02 PE=-3.971064765353D+03 EE= 1.393218186771D+03
 Leave Link  502 at Thu Oct 17 10:25:08 2024, MaxMem=  6710886400 cpu:             455.1 elap:              30.4
 (Enter /home/zengyun1/App/g16/l601.exe)
 Copying SCF densities to generalized density rwf, IOpCl= 0 IROHF=0.

 **********************************************************************

            Population analysis using the SCF Density.

 **********************************************************************

 Orbital symmetries:
       Occupied  (A) (A) (A) (A) (A) (A) (A) (A) (A) (A) (A) (A)
                 (A) (A) (A) (A) (A) (A) (A) (A) (A) (A) (A) (A)
                 (A) (A) (A) (A) (A) (A) (A) (A) (A) (A) (A) (A)
                 (A) (A) (A) (A) (A) (A) (A) (A) (A) (A) (A) (A)
                 (A) (A) (A) (A) (A) (A) (A) (A) (A) (A) (A) (A)
                 (A) (A)
       Virtual   (A) (A) (A) (A) (A) (A) (A) (A) (A) (A) (A) (A)
                 (A) (A) (A) (A) (A) (A) (A) (A) (A) (A) (A) (A)
                 (A) (A) (A) (A) (A) (A) (A) (A) (A) (A) (A) (A)
                 (A) (A) (A) (A) (A) (A) (A) (A) (A) (A) (A) (A)
                 (A) (A) (A) (A) (A) (A) (A) (A) (A) (A) (A) (A)
                 (A) (A) (A) (A) (A) (A) (A) (A) (A) (A) (A) (A)
                 (A) (A) (A) (A) (A) (A) (A) (A) (A) (A) (A) (A)
                 (A) (A) (A) (A) (A) (A) (A) (A) (A) (A) (A) (A)
                 (A) (A) (A) (A) (A) (A) (A) (A) (A) (A) (A) (A)
                 (A) (A) (A) (A) (A) (A) (A) (A) (A) (A) (A) (A)
                 (A) (A) (A) (A) (A) (A) (A) (A) (A) (A) (A) (A)
                 (A) (A) (A) (A) (A) (A) (A) (A) (A) (A) (A) (A)
                 (A) (A) (A) (A) (A) (A) (A) (A) (A) (A) (A) (A)
                 (A) (A) (A) (A) (A) (A) (A) (A) (A) (A) (A) (A)
                 (A) (A) (A) (A) (A) (A) (A) (A) (A) (A) (A) (A)
                 (A) (A) (A) (A) (A) (A) (A) (A) (A) (A) (A) (A)
                 (A) (A) (A) (A) (A) (A) (A) (A) (A) (A) (A) (A)
                 (A) (A) (A) (A) (A) (A) (A) (A) (A) (A) (A) (A)
                 (A) (A) (A) (A) (A) (A) (A) (A) (A) (A) (A) (A)
                 (A) (A) (A)
 The electronic state is 1-A.
 Alpha  occ. eigenvalues --  -19.15007 -14.37027 -10.24674 -10.23721 -10.23398
 Alpha  occ. eigenvalues --  -10.22688 -10.21087 -10.20686 -10.20091 -10.19325
 Alpha  occ. eigenvalues --  -10.19255 -10.19162 -10.18138 -10.17828 -10.17261
 Alpha  occ. eigenvalues --  -10.16880 -10.16658  -1.04026  -0.95483  -0.81135
 Alpha  occ. eigenvalues --   -0.80276  -0.79406  -0.79022  -0.73924  -0.71217
 Alpha  occ. eigenvalues --   -0.68627  -0.68314  -0.64874  -0.64108  -0.62516
 Alpha  occ. eigenvalues --   -0.59346  -0.56736  -0.51866  -0.50821  -0.50740
 Alpha  occ. eigenvalues --   -0.50120  -0.47958  -0.45822  -0.44694  -0.44484
 Alpha  occ. eigenvalues --   -0.43999  -0.42240  -0.41758  -0.41195  -0.40401
 Alpha  occ. eigenvalues --   -0.39759  -0.39465  -0.38871  -0.38536  -0.37474
 Alpha  occ. eigenvalues --   -0.36564  -0.35122  -0.34827  -0.34141  -0.33408
 Alpha  occ. eigenvalues --   -0.30389  -0.29720  -0.25958  -0.25386  -0.24360
 Alpha  occ. eigenvalues --   -0.23948  -0.17858
 Alpha virt. eigenvalues --   -0.02227   0.04482   0.06057   0.07062   0.09186
 Alpha virt. eigenvalues --    0.09983   0.10261   0.11620   0.11839   0.12715
 Alpha virt. eigenvalues --    0.13836   0.14188   0.14825   0.15314   0.15420
 Alpha virt. eigenvalues --    0.15748   0.16069   0.16470   0.17424   0.17815
 Alpha virt. eigenvalues --    0.17851   0.18295   0.18955   0.19735   0.20498
 Alpha virt. eigenvalues --    0.21012   0.21134   0.21962   0.22474   0.23301
 Alpha virt. eigenvalues --    0.23856   0.24816   0.26141   0.27404   0.29514
 Alpha virt. eigenvalues --    0.30269   0.32362   0.32793   0.39486   0.41634
 Alpha virt. eigenvalues --    0.45099   0.47102   0.47774   0.49592   0.50398
 Alpha virt. eigenvalues --    0.51143   0.51722   0.51887   0.53113   0.54238
 Alpha virt. eigenvalues --    0.55345   0.55895   0.56719   0.57556   0.58321
 Alpha virt. eigenvalues --    0.59714   0.59927   0.61116   0.62069   0.62179
 Alpha virt. eigenvalues --    0.63074   0.64356   0.64828   0.66040   0.66667
 Alpha virt. eigenvalues --    0.67914   0.69764   0.69862   0.70759   0.72299
 Alpha virt. eigenvalues --    0.74052   0.75320   0.76614   0.76939   0.78976
 Alpha virt. eigenvalues --    0.80331   0.81702   0.82464   0.83831   0.84545
 Alpha virt. eigenvalues --    0.84753   0.85173   0.86039   0.86664   0.87046
 Alpha virt. eigenvalues --    0.87698   0.88713   0.88886   0.89061   0.89573
 Alpha virt. eigenvalues --    0.90364   0.91413   0.91654   0.92661   0.93181
 Alpha virt. eigenvalues --    0.94511   0.95726   0.96219   0.96384   0.98021
 Alpha virt. eigenvalues --    0.99871   1.00977   1.02951   1.03726   1.05054
 Alpha virt. eigenvalues --    1.07580   1.09315   1.09902   1.11173   1.13174
 Alpha virt. eigenvalues --    1.13569   1.18021   1.19581   1.22167   1.26156
 Alpha virt. eigenvalues --    1.29645   1.30350   1.33544   1.35536   1.36681
 Alpha virt. eigenvalues --    1.38732   1.39821   1.41870   1.43531   1.44315
 Alpha virt. eigenvalues --    1.49336   1.50546   1.53817   1.54934   1.55986
 Alpha virt. eigenvalues --    1.57609   1.59373   1.61156   1.62204   1.62571
 Alpha virt. eigenvalues --    1.63702   1.66149   1.66343   1.68952   1.71146
 Alpha virt. eigenvalues --    1.71596   1.72186   1.75489   1.76431   1.77316
 Alpha virt. eigenvalues --    1.78119   1.81619   1.83131   1.84153   1.85732
 Alpha virt. eigenvalues --    1.88200   1.90455   1.91330   1.92427   1.94819
 Alpha virt. eigenvalues --    1.95536   1.96180   1.97182   1.97245   1.99402
 Alpha virt. eigenvalues --    2.00450   2.00691   2.02022   2.02962   2.03975
 Alpha virt. eigenvalues --    2.05895   2.06084   2.07328   2.09562   2.10689
 Alpha virt. eigenvalues --    2.12647   2.15164   2.16654   2.20468   2.21991
 Alpha virt. eigenvalues --    2.23942   2.25432   2.26407   2.29236   2.29989
 Alpha virt. eigenvalues --    2.31964   2.34049   2.35392   2.38032   2.39988
 Alpha virt. eigenvalues --    2.41158   2.42080   2.44406   2.44857   2.47427
 Alpha virt. eigenvalues --    2.48684   2.49337   2.51680   2.54611   2.61607
 Alpha virt. eigenvalues --    2.64288   2.64858   2.68107   2.69643   2.70535
 Alpha virt. eigenvalues --    2.73971   2.75453   2.77530   2.79659   2.81295
 Alpha virt. eigenvalues --    2.87687   2.92837   2.96532   2.98272   3.04769
 Alpha virt. eigenvalues --    3.07480   3.26642   3.49562   3.61139   4.00333
 Alpha virt. eigenvalues --    4.08867   4.16752   4.19083   4.21168   4.30172
 Alpha virt. eigenvalues --    4.32523   4.34585   4.34994   4.47570   4.50544
 Alpha virt. eigenvalues --    4.54720   4.60442   4.66012   4.85644   4.96549
 Alpha virt. eigenvalues --    5.04379
          Condensed to atoms (all electrons):
               1          2          3          4          5          6
     1  C    5.946871   0.160745  -0.337123   0.010915  -0.004735  -0.002030
     2  C    0.160745   5.148577   0.446133  -0.011354  -0.013163  -0.002847
     3  C   -0.337123   0.446133   5.349030   0.494871  -0.006717   0.009770
     4  C    0.010915  -0.011354   0.494871   5.272570   0.446649  -0.232829
     5  C   -0.004735  -0.013163  -0.006717   0.446649   5.190092   0.387594
     6  C   -0.002030  -0.002847   0.009770  -0.232829   0.387594   5.582586
     7  N    0.337982  -0.137812   0.000480   0.000050  -0.000061  -0.000001
     8  H    0.005001  -0.021944   0.343888  -0.043274   0.001520  -0.000289
     9  H   -0.000336   0.001431  -0.045707   0.351025  -0.022871   0.003697
    10  C   -0.000004  -0.000098   0.000050   0.002272  -0.101434   0.402737
    11  C   -0.044859  -0.004715  -0.000126  -0.000000  -0.000001  -0.000001
    12  C   -0.044216  -0.001427   0.000047   0.000011   0.000032  -0.000001
    13  C    0.000037   0.000031   0.000011   0.000098   0.001880  -0.044724
    14  H   -0.000001  -0.000000  -0.000000  -0.000179  -0.005214  -0.045570
    15  C   -0.000000  -0.000002   0.000002  -0.000026  -0.001067  -0.045395
    16  C    0.001466   0.000073   0.000002   0.000000  -0.000000  -0.000000
    17  H   -0.000461  -0.000325   0.000003   0.000000   0.000000   0.000000
    18  H    0.003556   0.005869   0.000026  -0.000002   0.000000   0.000000
    19  C    0.004796   0.000101   0.000001  -0.000000   0.000000   0.000001
    20  C   -0.001532   0.002093   0.000044   0.000002  -0.000078  -0.000130
    21  H   -0.000386   0.000729  -0.000062  -0.000010   0.000213   0.000268
    22  H    0.000021   0.000024  -0.000002  -0.000037   0.000193  -0.001313
    23  H    0.000001   0.000001  -0.000000   0.000001   0.000109   0.005721
    24  H   -0.000030   0.000050   0.000002  -0.000078  -0.001930  -0.005707
    25  H    0.000000   0.000000   0.000001  -0.000001   0.000314  -0.001775
    26  H    0.000000   0.000000  -0.000000   0.000002   0.000226   0.006166
    27  H   -0.000001   0.000001  -0.000001  -0.000082  -0.002028  -0.005224
    28  O    0.000704   0.000021   0.000000  -0.000000  -0.000000   0.000000
    29  C   -0.001730  -0.000433  -0.000003  -0.000000   0.000001   0.000001
    30  H   -0.000027   0.000001  -0.000000   0.000000  -0.000000  -0.000000
    31  H   -0.000108   0.000001  -0.000000   0.000000  -0.000000  -0.000000
    32  H    0.000296   0.000003   0.000000  -0.000000  -0.000000  -0.000000
    33  H   -0.000223  -0.000099  -0.000001   0.000000  -0.000001  -0.000006
    34  H    0.007497   0.003267   0.000004  -0.000054   0.000296   0.000508
    35  H    0.000279   0.000092   0.000000  -0.000000  -0.000000  -0.000000
    36  H    0.000031   0.000003   0.000000   0.000000  -0.000000   0.000000
               7          8          9         10         11         12
     1  C    0.337982   0.005001  -0.000336  -0.000004  -0.044859  -0.044216
     2  C   -0.137812  -0.021944   0.001431  -0.000098  -0.004715  -0.001427
     3  C    0.000480   0.343888  -0.045707   0.000050  -0.000126   0.000047
     4  C    0.000050  -0.043274   0.351025   0.002272  -0.000000   0.000011
     5  C   -0.000061   0.001520  -0.022871  -0.101434  -0.000001   0.000032
     6  C   -0.000001  -0.000289   0.003697   0.402737  -0.000001  -0.000001
     7  N    7.083226   0.000005  -0.000000   0.000002   0.304825   0.319884
     8  H    0.000005   0.567902  -0.004431  -0.000001   0.000006  -0.000002
     9  H   -0.000000  -0.004431   0.570071  -0.000034   0.000000  -0.000000
    10  C    0.000002  -0.000001  -0.000034   4.981206  -0.000000   0.000025
    11  C    0.304825   0.000006   0.000000  -0.000000   5.037163  -0.055658
    12  C    0.319884  -0.000002  -0.000000   0.000025  -0.055658   4.920280
    13  C    0.000010  -0.000000  -0.000003   0.356800  -0.000000  -0.001347
    14  H   -0.000000   0.000000   0.000008   0.381690  -0.000000  -0.000001
    15  C    0.000000   0.000000   0.000003   0.360052   0.000000  -0.000002
    16  C   -0.043746  -0.000000  -0.000000   0.000000   0.344967   0.013267
    17  H   -0.046663  -0.000001  -0.000000   0.000000   0.368593   0.001681
    18  H   -0.045612   0.000002  -0.000000   0.000000   0.344799   0.002029
    19  C   -0.050831   0.000000   0.000000   0.000000  -0.017707   0.352496
    20  C   -0.072172  -0.000000  -0.000000   0.000009  -0.015561   0.367896
    21  H   -0.037156   0.000001   0.000000  -0.000174   0.005229   0.367442
    22  H    0.000004   0.000000   0.000000  -0.027020   0.000000  -0.000768
    23  H   -0.000000   0.000000   0.000000  -0.030194   0.000000   0.000063
    24  H    0.000006   0.000000   0.000000  -0.026786  -0.000001  -0.000978
    25  H   -0.000000  -0.000000  -0.000003  -0.027550   0.000000   0.000000
    26  H   -0.000000   0.000000  -0.000000  -0.030777  -0.000000   0.000000
    27  H   -0.000000   0.000000   0.000001  -0.026923  -0.000000  -0.000001
    28  O   -0.004375   0.000000  -0.000000  -0.000000  -0.043465  -0.035261
    29  C   -0.011062   0.000000   0.000000  -0.000000  -0.052311  -0.040370
    30  H    0.003890   0.000000   0.000000  -0.000000  -0.042956  -0.000303
    31  H    0.004570  -0.000000  -0.000000   0.000000  -0.000295  -0.030384
    32  H   -0.001013   0.000000   0.000000  -0.000000   0.001958  -0.034292
    33  H    0.005452  -0.000000  -0.000000   0.000003  -0.000002  -0.027379
    34  H   -0.007873   0.000003   0.000001  -0.000021   0.001142  -0.031242
    35  H    0.000093   0.000000  -0.000000   0.000000  -0.001513   0.000655
    36  H    0.000016  -0.000000  -0.000000  -0.000000   0.005480   0.001554
              13         14         15         16         17         18
     1  C    0.000037  -0.000001  -0.000000   0.001466  -0.000461   0.003556
     2  C    0.000031  -0.000000  -0.000002   0.000073  -0.000325   0.005869
     3  C    0.000011  -0.000000   0.000002   0.000002   0.000003   0.000026
     4  C    0.000098  -0.000179  -0.000026   0.000000   0.000000  -0.000002
     5  C    0.001880  -0.005214  -0.001067  -0.000000   0.000000   0.000000
     6  C   -0.044724  -0.045570  -0.045395  -0.000000   0.000000   0.000000
     7  N    0.000010  -0.000000   0.000000  -0.043746  -0.046663  -0.045612
     8  H   -0.000000   0.000000   0.000000  -0.000000  -0.000001   0.000002
     9  H   -0.000003   0.000008   0.000003  -0.000000  -0.000000  -0.000000
    10  C    0.356800   0.381690   0.360052   0.000000   0.000000   0.000000
    11  C   -0.000000  -0.000000   0.000000   0.344967   0.368593   0.344799
    12  C   -0.001347  -0.000001  -0.000002   0.013267   0.001681   0.002029
    13  C    5.134397  -0.045317  -0.051356  -0.000001  -0.000000   0.000000
    14  H   -0.045317   0.607340  -0.047479  -0.000000  -0.000000   0.000000
    15  C   -0.051356  -0.047479   5.120992   0.000000   0.000000  -0.000000
    16  C   -0.000001  -0.000000   0.000000   4.781654  -0.032754  -0.017554
    17  H   -0.000000  -0.000000   0.000000  -0.032754   0.583686  -0.040546
    18  H    0.000000   0.000000  -0.000000  -0.017554  -0.040546   0.589504
    19  C   -0.000003  -0.000000   0.000000  -0.041955   0.001404   0.000079
    20  C   -0.000628  -0.000001  -0.000001  -0.041862  -0.000503   0.000823
    21  H    0.002908   0.000000   0.000011   0.000159  -0.000114  -0.000206
    22  H    0.370669  -0.003474   0.005030  -0.000000   0.000000  -0.000000
    23  H    0.358347  -0.002979  -0.003350   0.000000  -0.000000  -0.000000
    24  H    0.370882   0.005462  -0.005909  -0.000000   0.000000   0.000000
    25  H    0.004946  -0.003190   0.372224   0.000000  -0.000000  -0.000000
    26  H   -0.003651  -0.002538   0.357954  -0.000000  -0.000000   0.000000
    27  H   -0.005914   0.005594   0.371290  -0.000000  -0.000000   0.000000
    28  O   -0.000000  -0.000000   0.000000   0.249595   0.000038   0.003291
    29  C    0.000029   0.000000  -0.000000   0.356693   0.005965  -0.002052
    30  H    0.000000  -0.000000   0.000000   0.383034  -0.001829  -0.001531
    31  H    0.000010   0.000000  -0.000000   0.002489  -0.000001   0.000042
    32  H    0.000001   0.000000  -0.000000   0.000329  -0.001223  -0.000049
    33  H   -0.000024  -0.000000   0.000003   0.000773   0.000032  -0.000022
    34  H   -0.000370   0.000003  -0.000026   0.001457  -0.000015   0.000027
    35  H   -0.000000   0.000000  -0.000000  -0.025836  -0.000127   0.001814
    36  H   -0.000000  -0.000000  -0.000000  -0.027895  -0.000175  -0.000079
              19         20         21         22         23         24
     1  C    0.004796  -0.001532  -0.000386   0.000021   0.000001  -0.000030
     2  C    0.000101   0.002093   0.000729   0.000024   0.000001   0.000050
     3  C    0.000001   0.000044  -0.000062  -0.000002  -0.000000   0.000002
     4  C   -0.000000   0.000002  -0.000010  -0.000037   0.000001  -0.000078
     5  C    0.000000  -0.000078   0.000213   0.000193   0.000109  -0.001930
     6  C    0.000001  -0.000130   0.000268  -0.001313   0.005721  -0.005707
     7  N   -0.050831  -0.072172  -0.037156   0.000004  -0.000000   0.000006
     8  H    0.000000  -0.000000   0.000001   0.000000   0.000000   0.000000
     9  H    0.000000  -0.000000   0.000000   0.000000   0.000000   0.000000
    10  C    0.000000   0.000009  -0.000174  -0.027020  -0.030194  -0.026786
    11  C   -0.017707  -0.015561   0.005229   0.000000   0.000000  -0.000001
    12  C    0.352496   0.367896   0.367442  -0.000768   0.000063  -0.000978
    13  C   -0.000003  -0.000628   0.002908   0.370669   0.358347   0.370882
    14  H   -0.000000  -0.000001   0.000000  -0.003474  -0.002979   0.005462
    15  C    0.000000  -0.000001   0.000011   0.005030  -0.003350  -0.005909
    16  C   -0.041955  -0.041862   0.000159  -0.000000   0.000000  -0.000000
    17  H    0.001404  -0.000503  -0.000114   0.000000  -0.000000   0.000000
    18  H    0.000079   0.000823  -0.000206  -0.000000  -0.000000   0.000000
    19  C    4.886679  -0.048653  -0.029140   0.000025  -0.000001   0.000007
    20  C   -0.048653   5.118892  -0.042842  -0.000025  -0.000021   0.001969
    21  H   -0.029140  -0.042842   0.564310   0.003428  -0.000067   0.000719
    22  H    0.000025  -0.000025   0.003428   0.558395  -0.028583  -0.032415
    23  H   -0.000001  -0.000021  -0.000067  -0.028583   0.584441  -0.029239
    24  H    0.000007   0.001969   0.000719  -0.032415  -0.029239   0.557618
    25  H   -0.000000   0.000000  -0.000000  -0.000173  -0.000063  -0.000019
    26  H   -0.000000  -0.000000  -0.000000  -0.000079   0.003535  -0.000081
    27  H    0.000000  -0.000016  -0.000002  -0.000037  -0.000130   0.005336
    28  O    0.246224  -0.005070   0.002506   0.000000   0.000000  -0.000000
    29  C   -0.023760   0.339935   0.005226  -0.000000  -0.000000   0.000005
    30  H    0.006488   0.004959   0.000012   0.000000   0.000000  -0.000000
    31  H    0.360059  -0.005304  -0.001033  -0.000000  -0.000001   0.000018
    32  H    0.360255   0.006344  -0.001478  -0.000003   0.000000  -0.000002
    33  H   -0.003451   0.357680  -0.000536   0.000008   0.000020   0.001433
    34  H    0.004825   0.369661  -0.003571  -0.000027   0.000007   0.002080
    35  H    0.000234  -0.030360  -0.000134  -0.000000  -0.000000   0.000000
    36  H    0.001057  -0.028777  -0.000168  -0.000000   0.000000   0.000001
              25         26         27         28         29         30
     1  C    0.000000   0.000000  -0.000001   0.000704  -0.001730  -0.000027
     2  C    0.000000   0.000000   0.000001   0.000021  -0.000433   0.000001
     3  C    0.000001  -0.000000  -0.000001   0.000000  -0.000003  -0.000000
     4  C   -0.000001   0.000002  -0.000082  -0.000000  -0.000000   0.000000
     5  C    0.000314   0.000226  -0.002028  -0.000000   0.000001  -0.000000
     6  C   -0.001775   0.006166  -0.005224   0.000000   0.000001  -0.000000
     7  N   -0.000000  -0.000000  -0.000000  -0.004375  -0.011062   0.003890
     8  H   -0.000000   0.000000   0.000000   0.000000   0.000000   0.000000
     9  H   -0.000003  -0.000000   0.000001  -0.000000   0.000000   0.000000
    10  C   -0.027550  -0.030777  -0.026923  -0.000000  -0.000000  -0.000000
    11  C    0.000000  -0.000000  -0.000000  -0.043465  -0.052311  -0.042956
    12  C    0.000000   0.000000  -0.000001  -0.035261  -0.040370  -0.000303
    13  C    0.004946  -0.003651  -0.005914  -0.000000   0.000029   0.000000
    14  H   -0.003190  -0.002538   0.005594  -0.000000   0.000000  -0.000000
    15  C    0.372224   0.357954   0.371290   0.000000  -0.000000   0.000000
    16  C    0.000000  -0.000000  -0.000000   0.249595   0.356693   0.383034
    17  H   -0.000000  -0.000000  -0.000000   0.000038   0.005965  -0.001829
    18  H   -0.000000   0.000000   0.000000   0.003291  -0.002052  -0.001531
    19  C   -0.000000  -0.000000   0.000000   0.246224  -0.023760   0.006488
    20  C    0.000000  -0.000000  -0.000016  -0.005070   0.339935   0.004959
    21  H   -0.000000  -0.000000  -0.000002   0.002506   0.005226   0.000012
    22  H   -0.000173  -0.000079  -0.000037   0.000000  -0.000000   0.000000
    23  H   -0.000063   0.003535  -0.000130   0.000000  -0.000000   0.000000
    24  H   -0.000019  -0.000081   0.005336  -0.000000   0.000005  -0.000000
    25  H    0.557471  -0.028806  -0.029192   0.000000  -0.000000   0.000000
    26  H   -0.028806   0.586616  -0.029332   0.000000   0.000000  -0.000000
    27  H   -0.029192  -0.029332   0.565640  -0.000000   0.000000  -0.000000
    28  O    0.000000   0.000000  -0.000000   8.248388  -0.050748  -0.038266
    29  C   -0.000000   0.000000   0.000000  -0.050748   5.140729  -0.044652
    30  H    0.000000  -0.000000  -0.000000  -0.038266  -0.044652   0.591768
    31  H   -0.000000   0.000000   0.000000  -0.039647   0.001368  -0.000263
    32  H    0.000000   0.000000  -0.000000  -0.041595  -0.000468  -0.000175
    33  H   -0.000000  -0.000000  -0.000001  -0.000064  -0.029424  -0.000116
    34  H   -0.000000   0.000001   0.000113  -0.000047  -0.028914  -0.000137
    35  H    0.000000   0.000000  -0.000000   0.003565   0.349484   0.000211
    36  H   -0.000000  -0.000000   0.000000   0.001302   0.363715  -0.004166
              31         32         33         34         35         36
     1  C   -0.000108   0.000296  -0.000223   0.007497   0.000279   0.000031
     2  C    0.000001   0.000003  -0.000099   0.003267   0.000092   0.000003
     3  C   -0.000000   0.000000  -0.000001   0.000004   0.000000   0.000000
     4  C    0.000000  -0.000000   0.000000  -0.000054  -0.000000   0.000000
     5  C   -0.000000  -0.000000  -0.000001   0.000296  -0.000000  -0.000000
     6  C   -0.000000  -0.000000  -0.000006   0.000508  -0.000000   0.000000
     7  N    0.004570  -0.001013   0.005452  -0.007873   0.000093   0.000016
     8  H   -0.000000   0.000000  -0.000000   0.000003   0.000000  -0.000000
     9  H   -0.000000   0.000000  -0.000000   0.000001  -0.000000  -0.000000
    10  C    0.000000  -0.000000   0.000003  -0.000021   0.000000  -0.000000
    11  C   -0.000295   0.001958  -0.000002   0.001142  -0.001513   0.005480
    12  C   -0.030384  -0.034292  -0.027379  -0.031242   0.000655   0.001554
    13  C    0.000010   0.000001  -0.000024  -0.000370  -0.000000  -0.000000
    14  H    0.000000   0.000000  -0.000000   0.000003   0.000000  -0.000000
    15  C   -0.000000  -0.000000   0.000003  -0.000026  -0.000000  -0.000000
    16  C    0.002489   0.000329   0.000773   0.001457  -0.025836  -0.027895
    17  H   -0.000001  -0.001223   0.000032  -0.000015  -0.000127  -0.000175
    18  H    0.000042  -0.000049  -0.000022   0.000027   0.001814  -0.000079
    19  C    0.360059   0.360255  -0.003451   0.004825   0.000234   0.001057
    20  C   -0.005304   0.006344   0.357680   0.369661  -0.030360  -0.028777
    21  H   -0.001033  -0.001478  -0.000536  -0.003571  -0.000134  -0.000168
    22  H   -0.000000  -0.000003   0.000008  -0.000027  -0.000000  -0.000000
    23  H   -0.000001   0.000000   0.000020   0.000007  -0.000000   0.000000
    24  H    0.000018  -0.000002   0.001433   0.002080   0.000000   0.000001
    25  H   -0.000000   0.000000  -0.000000  -0.000000   0.000000  -0.000000
    26  H    0.000000   0.000000  -0.000000   0.000001   0.000000  -0.000000
    27  H    0.000000  -0.000000  -0.000001   0.000113  -0.000000   0.000000
    28  O   -0.039647  -0.041595  -0.000064  -0.000047   0.003565   0.001302
    29  C    0.001368  -0.000468  -0.029424  -0.028914   0.349484   0.363715
    30  H   -0.000263  -0.000175  -0.000116  -0.000137   0.000211  -0.004166
    31  H    0.614204  -0.049048   0.003051   0.000055  -0.000051  -0.000339
    32  H   -0.049048   0.613349  -0.000148  -0.000171   0.000044   0.000035
    33  H    0.003051  -0.000148   0.589495  -0.034265   0.003137  -0.010026
    34  H    0.000055  -0.000171  -0.034265   0.553331  -0.009294   0.003378
    35  H   -0.000051   0.000044   0.003137  -0.009294   0.595247  -0.031396
    36  H   -0.000339   0.000035  -0.010026   0.003378  -0.031396   0.572762
 Mulliken charges:
               1
     1  C   -0.042393
     2  C    0.424973
     3  C   -0.254622
     4  C   -0.290540
     5  C    0.130183
     6  C   -0.011208
     7  N   -0.602117
     8  H    0.151615
     9  H    0.147150
    10  C   -0.213829
    11  C   -0.134991
    12  C   -0.043731
    13  C   -0.447718
    14  H    0.155846
    15  C   -0.432946
    16  C    0.095648
    17  H    0.163334
    18  H    0.155791
    19  C   -0.009232
    20  C   -0.276769
    21  H    0.163916
    22  H    0.156159
    23  H    0.142382
    24  H    0.157586
    25  H    0.155817
    26  H    0.140767
    27  H    0.150908
    28  O   -0.497095
    29  C   -0.277223
    30  H    0.144059
    31  H    0.140608
    32  H    0.147052
    33  H    0.144701
    34  H    0.168373
    35  H    0.143857
    36  H    0.153688
 Sum of Mulliken charges =  -0.00000
 Mulliken charges with hydrogens summed into heavy atoms:
               1
     1  C   -0.042393
     2  C    0.424973
     3  C   -0.103006
     4  C   -0.143390
     5  C    0.130183
     6  C   -0.011208
     7  N   -0.602117
    10  C   -0.057983
    11  C    0.184134
    12  C    0.120185
    13  C    0.008409
    15  C    0.014547
    16  C    0.239707
    19  C    0.278428
    20  C    0.036306
    28  O   -0.497095
    29  C    0.020321
 Electronic spatial extent (au):  <R**2>=           5079.5600
 Charge=              0.0000 electrons
 Dipole moment (field-independent basis, Debye):
    X=              0.8692    Y=             -1.3297    Z=              0.9512  Tot=              1.8516
 Quadrupole moment (field-independent basis, Debye-Ang):
   XX=           -103.5463   YY=            -96.0862   ZZ=           -100.9735
   XY=              6.1758   XZ=              3.8493   YZ=              2.8531
 Traceless Quadrupole moment (field-independent basis, Debye-Ang):
   XX=             -3.3443   YY=              4.1158   ZZ=             -0.7715
   XY=              6.1758   XZ=              3.8493   YZ=              2.8531
 Octapole moment (field-independent basis, Debye-Ang**2):
  XXX=             -1.9926  YYY=              4.6481  ZZZ=             -3.7095  XYY=             -7.7627
  XXY=             12.5329  XXZ=             16.6748  XZZ=             17.9423  YZZ=            -10.4013
  YYZ=              2.7999  XYZ=             -3.4695
 Hexadecapole moment (field-independent basis, Debye-Ang**3):
 XXXX=          -4647.8904 YYYY=          -1715.1149 ZZZZ=           -493.4447 XXXY=            121.3573
 XXXZ=             67.6726 YYYX=            -48.0744 YYYZ=             24.7082 ZZZX=             -7.5035
 ZZZY=              9.2657 XXYY=          -1011.4481 XXZZ=           -837.0920 YYZZ=           -400.1514
 XXYZ=             11.0184 YYXZ=             -3.2984 ZZXY=              4.0172
 N-N= 1.158880520610D+03 E-N=-3.971064783446D+03  KE= 7.060774314372D+02
 No NMR shielding tensors so no spin-rotation constants.
 Leave Link  601 at Thu Oct 17 10:25:08 2024, MaxMem=  6710886400 cpu:               1.4 elap:               0.1
 (Enter /home/zengyun1/App/g16/l607.exe)
 ******************************Gaussian NBO Version 3.1******************************
             N A T U R A L   A T O M I C   O R B I T A L   A N D
          N A T U R A L   B O N D   O R B I T A L   A N A L Y S I S
 ******************************Gaussian NBO Version 3.1******************************
       /RESON  / : Allow strongly delocalized NBO set

 Analyzing the SCF density

 Job title: Title Card Required                                             

 Storage needed:    261764 in NPA,    345586 in NBO (6710879560 available)


 NATURAL POPULATIONS:  Natural atomic orbital occupancies 
                                                          
   NAO  Atom  No  lang   Type(AO)    Occupancy      Energy
 ----------------------------------------------------------
     1    C    1  S      Cor( 1S)     1.99853     -10.05702
     2    C    1  S      Val( 2S)     0.78180      -0.04172
     3    C    1  S      Ryd( 3S)     0.00211       1.74860
     4    C    1  S      Ryd( 4S)     0.00022       3.03162
     5    C    1  px     Val( 2p)     1.02377       0.03611
     6    C    1  px     Ryd( 3p)     0.00307       1.26982
     7    C    1  py     Val( 2p)     1.02895      -0.01736
     8    C    1  py     Ryd( 3p)     0.00334       1.05675
     9    C    1  pz     Val( 2p)     0.95861      -0.06149
    10    C    1  pz     Ryd( 3p)     0.00237       0.70235
    11    C    1  dxy    Ryd( 3d)     0.00069       2.86330
    12    C    1  dxz    Ryd( 3d)     0.00148       2.14034
    13    C    1  dyz    Ryd( 3d)     0.00064       1.96588
    14    C    1  dx2y2  Ryd( 3d)     0.00107       2.37416
    15    C    1  dz2    Ryd( 3d)     0.00035       2.16651
 
    16    C    2  S      Cor( 1S)     1.99850     -10.01951
    17    C    2  S      Val( 2S)     0.86674      -0.05935
    18    C    2  S      Ryd( 3S)     0.00192       1.62431
    19    C    2  S      Ryd( 4S)     0.00014       3.27280
    20    C    2  px     Val( 2p)     1.07536       0.02102
    21    C    2  px     Ryd( 3p)     0.00269       1.51489
    22    C    2  py     Val( 2p)     1.02429      -0.02296
    23    C    2  py     Ryd( 3p)     0.00284       1.06680
    24    C    2  pz     Val( 2p)     1.12197      -0.05646
    25    C    2  pz     Ryd( 3p)     0.00134       0.72733
    26    C    2  dxy    Ryd( 3d)     0.00060       2.74659
    27    C    2  dxz    Ryd( 3d)     0.00066       2.10165
    28    C    2  dyz    Ryd( 3d)     0.00022       1.91199
    29    C    2  dx2y2  Ryd( 3d)     0.00084       2.35460
    30    C    2  dz2    Ryd( 3d)     0.00022       2.13637
 
    31    C    3  S      Cor( 1S)     1.99899     -10.05423
    32    C    3  S      Val( 2S)     0.96244      -0.14985
    33    C    3  S      Ryd( 3S)     0.00167       1.28688
    34    C    3  S      Ryd( 4S)     0.00003       3.89043
    35    C    3  px     Val( 2p)     1.06750      -0.02214
    36    C    3  px     Ryd( 3p)     0.00308       0.72856
    37    C    3  py     Val( 2p)     1.18877      -0.04833
    38    C    3  py     Ryd( 3p)     0.00340       1.07177
    39    C    3  pz     Val( 2p)     1.01571      -0.09412
    40    C    3  pz     Ryd( 3p)     0.00107       0.64963
    41    C    3  dxy    Ryd( 3d)     0.00072       2.40694
    42    C    3  dxz    Ryd( 3d)     0.00086       2.01007
    43    C    3  dyz    Ryd( 3d)     0.00028       1.85053
    44    C    3  dx2y2  Ryd( 3d)     0.00091       2.42676
    45    C    3  dz2    Ryd( 3d)     0.00045       2.31117
 
    46    C    4  S      Cor( 1S)     1.99898     -10.04647
    47    C    4  S      Val( 2S)     0.96044      -0.14554
    48    C    4  S      Ryd( 3S)     0.00159       1.31048
    49    C    4  S      Ryd( 4S)     0.00003       3.82400
    50    C    4  px     Val( 2p)     1.15256      -0.03784
    51    C    4  px     Ryd( 3p)     0.00188       0.87378
    52    C    4  py     Val( 2p)     1.09610      -0.02305
    53    C    4  py     Ryd( 3p)     0.00457       0.90184
    54    C    4  pz     Val( 2p)     1.07035      -0.09263
    55    C    4  pz     Ryd( 3p)     0.00161       0.65404
    56    C    4  dxy    Ryd( 3d)     0.00089       2.41781
    57    C    4  dxz    Ryd( 3d)     0.00052       1.89573
    58    C    4  dyz    Ryd( 3d)     0.00039       1.96001
    59    C    4  dx2y2  Ryd( 3d)     0.00073       2.41009
    60    C    4  dz2    Ryd( 3d)     0.00041       2.33366
 
    61    C    5  S      Cor( 1S)     1.99857     -10.01011
    62    C    5  S      Val( 2S)     0.87167      -0.05048
    63    C    5  S      Ryd( 3S)     0.00252       1.59366
    64    C    5  S      Ryd( 4S)     0.00014       3.13583
    65    C    5  px     Val( 2p)     1.00762      -0.04292
    66    C    5  px     Ryd( 3p)     0.00366       0.82946
    67    C    5  py     Val( 2p)     1.13855       0.05411
    68    C    5  py     Ryd( 3p)     0.00258       1.64583
    69    C    5  pz     Val( 2p)     1.01368      -0.04622
    70    C    5  pz     Ryd( 3p)     0.00041       0.72000
    71    C    5  dxy    Ryd( 3d)     0.00081       2.31137
    72    C    5  dxz    Ryd( 3d)     0.00007       1.78442
    73    C    5  dyz    Ryd( 3d)     0.00099       2.21366
    74    C    5  dx2y2  Ryd( 3d)     0.00056       2.79644
    75    C    5  dz2    Ryd( 3d)     0.00021       2.14513
 
    76    C    6  S      Cor( 1S)     1.99862     -10.01201
    77    C    6  S      Val( 2S)     0.87155      -0.06149
    78    C    6  S      Ryd( 3S)     0.00375       1.55022
    79    C    6  S      Ryd( 4S)     0.00014       3.19750
    80    C    6  px     Val( 2p)     1.00299      -0.04910
    81    C    6  px     Ryd( 3p)     0.00286       0.78985
    82    C    6  py     Val( 2p)     1.11397       0.05784
    83    C    6  py     Ryd( 3p)     0.00283       1.60805
    84    C    6  pz     Val( 2p)     1.00025      -0.05056
    85    C    6  pz     Ryd( 3p)     0.00336       0.76012
    86    C    6  dxy    Ryd( 3d)     0.00096       2.24934
    87    C    6  dxz    Ryd( 3d)     0.00010       1.79670
    88    C    6  dyz    Ryd( 3d)     0.00088       2.20756
    89    C    6  dx2y2  Ryd( 3d)     0.00056       2.78199
    90    C    6  dz2    Ryd( 3d)     0.00020       2.14280
 
    91    N    7  S      Cor( 1S)     1.99931     -14.19424
    92    N    7  S      Val( 2S)     1.20504      -0.48982
    93    N    7  S      Ryd( 3S)     0.00321       1.79979
    94    N    7  S      Ryd( 4S)     0.00002       3.89865
    95    N    7  px     Val( 2p)     1.29106      -0.22453
    96    N    7  px     Ryd( 3p)     0.00215       1.27202
    97    N    7  py     Val( 2p)     1.29211      -0.22259
    98    N    7  py     Ryd( 3p)     0.00221       1.17377
    99    N    7  pz     Val( 2p)     1.68425      -0.23997
   100    N    7  pz     Ryd( 3p)     0.00565       1.02438
   101    N    7  dxy    Ryd( 3d)     0.00077       2.53648
   102    N    7  dxz    Ryd( 3d)     0.00108       2.19766
   103    N    7  dyz    Ryd( 3d)     0.00065       2.03639
   104    N    7  dx2y2  Ryd( 3d)     0.00082       2.42061
   105    N    7  dz2    Ryd( 3d)     0.00085       2.25327
 
   106    H    8  S      Val( 1S)     0.75215       0.09745
   107    H    8  S      Ryd( 2S)     0.00110       0.59442
 
   108    H    9  S      Val( 1S)     0.75409       0.10310
   109    H    9  S      Ryd( 2S)     0.00108       0.59617
 
   110    C   10  S      Cor( 1S)     1.99915     -10.07000
   111    C   10  S      Val( 2S)     0.97886      -0.20632
   112    C   10  S      Ryd( 3S)     0.00149       1.54012
   113    C   10  S      Ryd( 4S)     0.00002       4.40453
   114    C   10  px     Val( 2p)     1.13181      -0.08521
   115    C   10  px     Ryd( 3p)     0.00160       0.80059
   116    C   10  py     Val( 2p)     1.05301      -0.07008
   117    C   10  py     Ryd( 3p)     0.00184       0.63270
   118    C   10  pz     Val( 2p)     1.13882      -0.08561
   119    C   10  pz     Ryd( 3p)     0.00163       0.79558
   120    C   10  dxy    Ryd( 3d)     0.00061       2.07839
   121    C   10  dxz    Ryd( 3d)     0.00118       2.19163
   122    C   10  dyz    Ryd( 3d)     0.00063       2.05432
   123    C   10  dx2y2  Ryd( 3d)     0.00100       2.28326
   124    C   10  dz2    Ryd( 3d)     0.00069       2.15000
 
   125    C   11  S      Cor( 1S)     1.99926     -10.09695
   126    C   11  S      Val( 2S)     1.03247      -0.24886
   127    C   11  S      Ryd( 3S)     0.00144       1.40422
   128    C   11  S      Ryd( 4S)     0.00003       4.28222
   129    C   11  px     Val( 2p)     0.92898      -0.07641
   130    C   11  px     Ryd( 3p)     0.00313       0.69730
   131    C   11  py     Val( 2p)     1.13417      -0.09964
   132    C   11  py     Ryd( 3p)     0.00225       0.61857
   133    C   11  pz     Val( 2p)     1.16321      -0.09587
   134    C   11  pz     Ryd( 3p)     0.00381       0.81052
   135    C   11  dxy    Ryd( 3d)     0.00081       2.15951
   136    C   11  dxz    Ryd( 3d)     0.00147       2.14827
   137    C   11  dyz    Ryd( 3d)     0.00113       2.24365
   138    C   11  dx2y2  Ryd( 3d)     0.00096       2.14506
   139    C   11  dz2    Ryd( 3d)     0.00066       1.98942
 
   140    C   12  S      Cor( 1S)     1.99918     -10.09881
   141    C   12  S      Val( 2S)     0.96528      -0.22639
   142    C   12  S      Ryd( 3S)     0.00120       1.77226
   143    C   12  S      Ryd( 4S)     0.00003       4.34625
   144    C   12  px     Val( 2p)     1.17560      -0.10768
   145    C   12  px     Ryd( 3p)     0.00488       0.98831
   146    C   12  py     Val( 2p)     0.82761      -0.07185
   147    C   12  py     Ryd( 3p)     0.00273       0.68088
   148    C   12  pz     Val( 2p)     1.10192      -0.09887
   149    C   12  pz     Ryd( 3p)     0.00321       0.79985
   150    C   12  dxy    Ryd( 3d)     0.00069       2.13885
   151    C   12  dxz    Ryd( 3d)     0.00111       2.20497
   152    C   12  dyz    Ryd( 3d)     0.00120       2.06059
   153    C   12  dx2y2  Ryd( 3d)     0.00141       2.23197
   154    C   12  dz2    Ryd( 3d)     0.00084       2.18541
 
   155    C   13  S      Cor( 1S)     1.99942     -10.05137
   156    C   13  S      Val( 2S)     1.10164      -0.25426
   157    C   13  S      Ryd( 3S)     0.00042       1.29958
   158    C   13  S      Ryd( 4S)     0.00001       4.23718
   159    C   13  px     Val( 2p)     1.11313      -0.07443
   160    C   13  px     Ryd( 3p)     0.00102       0.60141
   161    C   13  py     Val( 2p)     1.20397      -0.08112
   162    C   13  py     Ryd( 3p)     0.00132       0.70250
   163    C   13  pz     Val( 2p)     1.23178      -0.08168
   164    C   13  pz     Ryd( 3p)     0.00187       0.68679
   165    C   13  dxy    Ryd( 3d)     0.00036       1.99269
   166    C   13  dxz    Ryd( 3d)     0.00102       2.16061
   167    C   13  dyz    Ryd( 3d)     0.00039       1.96558
   168    C   13  dx2y2  Ryd( 3d)     0.00096       2.13713
   169    C   13  dz2    Ryd( 3d)     0.00061       2.08082
 
   170    H   14  S      Val( 1S)     0.73603       0.09645
   171    H   14  S      Ryd( 2S)     0.00216       0.65022
 
   172    C   15  S      Cor( 1S)     1.99943     -10.04890
   173    C   15  S      Val( 2S)     1.10421      -0.25307
   174    C   15  S      Ryd( 3S)     0.00041       1.26857
   175    C   15  S      Ryd( 4S)     0.00002       4.21633
   176    C   15  px     Val( 2p)     1.22998      -0.07930
   177    C   15  px     Ryd( 3p)     0.00199       0.68381
   178    C   15  py     Val( 2p)     1.20577      -0.07739
   179    C   15  py     Ryd( 3p)     0.00124       0.68750
[...]
    44. CR (   1) C   2                  1.99851   -10.02025  255(v),65(v),252(g),83(v)
                                                    257(v),84(v),259(v)
    45. CR (   1) C   3                  1.99899   -10.05473  252(v),96(v),76(v),260(v)
                                                    94(v),257(g),261(v)
    46. CR (   1) C   4                  1.99899   -10.04697  262(v),86(v),106(v),256(v)
                                                    257(g),259(v),84(v)
    47. CR (   1) C   5                  1.99858   -10.01082  265(v),262(g),115(v),113(v)
                                                    93(v),116(v),257(v),94(v)
                                                    261(v)
    48. CR (   1) C   6                  1.99862   -10.01263  260(v),103(v),262(g),136(v)
    49. CR (   1) N   7                  1.99930   -14.19456  252(v),146(v),67(v),156(v)
                                                    65(v)
    50. CR (   1) C  10                  1.99915   -10.07018  262(v),116(v),167(v),178(v)
    51. CR (   1) C  11                  1.99926   -10.09687  187(v),255(v),267(v)
    52. CR (   1) C  12                  1.99917   -10.09876  210(v),200(v),255(v),266(v)
    53. CR (   1) C  13                  1.99942   -10.05099  137(v)
    54. CR (   1) C  15                  1.99943   -10.04851  137(v)
    55. CR (   1) C  16                  1.99912   -10.12065  283(g),237(v),286(v),147(v)
    56. CR (   1) C  19                  1.99920   -10.11616  286(g),283(v),157(v)
    57. CR (   1) C  20                  1.99930   -10.05635  156(v),237(v)
    58. CR (   1) O  28                  1.99981   -18.94106  186(v),198(v)
    59. CR (   1) C  29                  1.99930   -10.05657  187(v),210(v)
    60. LP (   1) N   7                  1.75960    -0.26305  254(v),275(v),272(v),64(v)
                                                    273(v),274(v),157(v),271(v)
                                                    253(v),252(v),276(v),290(r)
                                                    149(v),147(v),145(v)
    61. LP (   1) O  28                  1.96547    -0.55850  186(v),274(v),198(v),271(v)
                                                    285(v),284(v),188(v)
    62. LP (   2) O  28                  1.92863    -0.28435  284(v),288(v),271(v),287(v)
                                                    201(v),189(v),292(r),187(v)
                                                    273(r)
    63. RY*(   1) C   1                  0.00500     0.97896   
    64. RY*(   2) C   1                  0.00338     1.70053   
    65. RY*(   3) C   1                  0.00278     2.16378   
    66. RY*(   4) C   1                  0.00132     1.51296   
    67. RY*(   5) C   1                  0.00104     1.03246   
    68. RY*(   6) C   1                  0.00007     2.26140   
    69. RY*(   7) C   1                  0.00005     2.76690   
    70. RY*(   8) C   1                  0.00002     1.76560   
    71. RY*(   9) C   1                  0.00002     2.88987   
    72. RY*(  10) C   1                  0.00002     2.23086   
    73. RY*(   1) C   2                  0.00370     0.93475   
    74. RY*(   2) C   2                  0.00316     1.88369   
    75. RY*(   3) C   2                  0.00138     1.04950   
    76. RY*(   4) C   2                  0.00060     1.50594   
    77. RY*(   5) C   2                  0.00050     1.89667   
    78. RY*(   6) C   2                  0.00008     3.29106   
    79. RY*(   7) C   2                  0.00002     2.69902   
    80. RY*(   8) C   2                  0.00003     2.45406   
    81. RY*(   9) C   2                  0.00000     1.76304   
    82. RY*(  10) C   2                  0.00001     1.96848   
    83. RY*(   1) C   3                  0.00443     1.15523   
    84. RY*(   2) C   3                  0.00149     1.02674   
    85. RY*(   3) C   3                  0.00124     1.33662   
    86. RY*(   4) C   3                  0.00097     1.25147   
    87. RY*(   5) C   3                  0.00040     1.36369   
    88. RY*(   6) C   3                  0.00027     2.21383   
    89. RY*(   7) C   3                  0.00003     3.89662   
    90. RY*(   8) C   3                  0.00003     2.30102   
    91. RY*(   9) C   3                  0.00002     2.27485   
    92. RY*(  10) C   3                  0.00000     1.79342   
    93. RY*(   1) C   4                  0.00430     1.12635   
    94. RY*(   2) C   4                  0.00134     0.96039   
    95. RY*(   3) C   4                  0.00130     0.85308   
    96. RY*(   4) C   4                  0.00099     1.31380   
    97. RY*(   5) C   4                  0.00042     1.82931   
    98. RY*(   6) C   4                  0.00030     2.26621   
    99. RY*(   7) C   4                  0.00003     3.79995   
   100. RY*(   8) C   4                  0.00003     2.29842   
   101. RY*(   9) C   4                  0.00002     2.31271   
   102. RY*(  10) C   4                  0.00000     1.80168   
   103. RY*(   1) C   5                  0.00422     1.91704   
   104. RY*(   2) C   5                  0.00383     0.94648   
   105. RY*(   3) C   5                  0.00100     1.93231   
   106. RY*(   4) C   5                  0.00067     1.39013   
   107. RY*(   5) C   5                  0.00008     2.93138   
   108. RY*(   6) C   5                  0.00005     1.24143   
   109. RY*(   7) C   5                  0.00002     2.27019   
   110. RY*(   8) C   5                  0.00002     2.82337   
   111. RY*(   9) C   5                  0.00000     1.73381   
   112. RY*(  10) C   5                  0.00001     1.97818   
   113. RY*(   1) C   6                  0.00421     1.29253   
   114. RY*(   2) C   6                  0.00371     1.06022   
   115. RY*(   3) C   6                  0.00310     1.35906   
   116. RY*(   4) C   6                  0.00118     1.27037   
   117. RY*(   5) C   6                  0.00015     2.05641   
   118. RY*(   6) C   6                  0.00006     3.40197   
   119. RY*(   7) C   6                  0.00002     2.10260   
   120. RY*(   8) C   6                  0.00003     2.89536   
   121. RY*(   9) C   6                  0.00001     1.83185   
   122. RY*(  10) C   6                  0.00001     1.80160   
   123. RY*(   1) N   7                  0.00571     0.96380   
   124. RY*(   2) N   7                  0.00286     1.55080   
   125. RY*(   3) N   7                  0.00230     1.76278   
   126. RY*(   4) N   7                  0.00076     2.36184   
   127. RY*(   5) N   7                  0.00054     1.57005   
   128. RY*(   6) N   7                  0.00047     2.05976   
   129. RY*(   7) N   7                  0.00020     2.44757   
   130. RY*(   8) N   7                  0.00015     1.75082   
   131. RY*(   9) N   7                  0.00004     2.39397   
   132. RY*(  10) N   7                  0.00001     3.74673   
   133. RY*(   1) H   8                  0.00110     0.59301   
   134. RY*(   1) H   9                  0.00108     0.59472   
   135. RY*(   1) C  10                  0.00230     1.22730   
   136. RY*(   2) C  10                  0.00216     0.97928   
   137. RY*(   3) C  10                  0.00118     0.87014   
   138. RY*(   4) C  10                  0.00069     1.67783   
   139. RY*(   5) C  10                  0.00060     2.02636   
   140. RY*(   6) C  10                  0.00028     2.04107   
   141. RY*(   7) C  10                  0.00016     1.80049   
   142. RY*(   8) C  10                  0.00015     1.98682   
   143. RY*(   9) C  10                  0.00003     1.94080   
   144. RY*(  10) C  10                  0.00002     4.36481   
   145. RY*(   1) C  11                  0.00400     1.09740   
   146. RY*(   2) C  11                  0.00200     0.80654   
   147. RY*(   3) C  11                  0.00189     0.98431   
   148. RY*(   4) C  11                  0.00094     1.66461   
   149. RY*(   5) C  11                  0.00064     1.69031   
   150. RY*(   6) C  11                  0.00020     2.11958   
   151. RY*(   7) C  11                  0.00007     2.14975   
   152. RY*(   8) C  11                  0.00004     1.75400   
   153. RY*(   9) C  11                  0.00001     4.14575   
   154. RY*(  10) C  11                  0.00002     2.06185   
   155. RY*(   1) C  12                  0.00332     1.13500   
   156. RY*(   2) C  12                  0.00225     0.92319   
   157. RY*(   3) C  12                  0.00142     1.41357   
   158. RY*(   4) C  12                  0.00091     1.80852   
   159. RY*(   5) C  12                  0.00063     1.46121   
   160. RY*(   6) C  12                  0.00058     2.07831   
   161. RY*(   7) C  12                  0.00025     2.05712   
   162. RY*(   8) C  12                  0.00018     2.11910   
   163. RY*(   9) C  12                  0.00011     2.14274   
   164. RY*(  10) C  12                  0.00002     4.25327   
   165. RY*(   1) C  13                  0.00219     0.92456   
   166. RY*(   2) C  13                  0.00144     0.96656   
   167. RY*(   3) C  13                  0.00048     0.98379   
   168. RY*(   4) C  13                  0.00017     1.17254   
   169. RY*(   5) C  13                  0.00007     1.84004   
   170. RY*(   6) C  13                  0.00002     2.00570   
   171. RY*(   7) C  13                  0.00000     3.99207   
   172. RY*(   8) C  13                  0.00001     1.97640   
   173. RY*(   9) C  13                  0.00001     1.99017   
   174. RY*(  10) C  13                  0.00001     1.99708   
   175. RY*(   1) H  14                  0.00217     0.64736   
   176. RY*(   1) C  15                  0.00223     0.90410   
   177. RY*(   2) C  15                  0.00142     0.94667   
   178. RY*(   3) C  15                  0.00047     1.01190   
   179. RY*(   4) C  15                  0.00014     1.19984   
   180. RY*(   5) C  15                  0.00006     1.84461   
   181. RY*(   6) C  15                  0.00001     1.96579   
   182. RY*(   7) C  15                  0.00001     1.97815   
   183. RY*(   8) C  15                  0.00000     1.95800   
   184. RY*(   9) C  15                  0.00000     3.96533   
   185. RY*(  10) C  15                  0.00001     1.98142   
   186. RY*(   1) C  16                  0.00505     0.72388   
   187. RY*(   2) C  16                  0.00302     1.10932   
   188. RY*(   3) C  16                  0.00240     1.51300   
   189. RY*(   4) C  16                  0.00117     1.66039   
   190. RY*(   5) C  16                  0.00081     1.79433   
   191. RY*(   6) C  16                  0.00067     1.88248   
   192. RY*(   7) C  16                  0.00051     2.15854   
   193. RY*(   8) C  16                  0.00017     2.11302   
   194. RY*(   9) C  16                  0.00005     1.89063   
   195. RY*(  10) C  16                  0.00002     4.29806   
   196. RY*(   1) H  17                  0.00201     0.62848   
   197. RY*(   1) H  18                  0.00182     0.64417   
   198. RY*(   1) C  19                  0.00387     0.73807   
   199. RY*(   2) C  19                  0.00291     1.00308   
   200. RY*(   3) C  19                  0.00173     1.04308   
   201. RY*(   4) C  19                  0.00163     1.95603   
   202. RY*(   5) C  19                  0.00093     1.74619   
   203. RY*(   6) C  19                  0.00034     1.73506   
   204. RY*(   7) C  19                  0.00010     1.95107   
   205. RY*(   8) C  19                  0.00007     1.86870   
   206. RY*(   9) C  19                  0.00002     4.17845   
   207. RY*(  10) C  19                  0.00001     2.03686   
   208. RY*(   1) C  20                  0.00406     1.05533   
   209. RY*(   2) C  20                  0.00202     0.96672   
   210. RY*(   3) C  20                  0.00108     0.79095   
   211. RY*(   4) C  20                  0.00058     1.59440   
   212. RY*(   5) C  20                  0.00025     1.87553   
   213. RY*(   6) C  20                  0.00009     2.18222   
   214. RY*(   7) C  20                  0.00005     1.96067   
   215. RY*(   8) C  20                  0.00004     2.09468   
   216. RY*(   9) C  20                  0.00000     4.03726   
   217. RY*(  10) C  20                  0.00001     2.11000   
   218. RY*(   1) H  21                  0.00154     0.71439   
   219. RY*(   1) H  22                  0.00092     0.69802   
   220. RY*(   1) H  23                  0.00104     0.65130   
   221. RY*(   1) H  24                  0.00147     0.82670   
   222. RY*(   1) H  25                  0.00084     0.65015   
   223. RY*(   1) H  26                  0.00110     0.65490   
   224. RY*(   1) H  27                  0.00129     0.66372   
   225. RY*(   1) O  28                  0.00323     1.14108   
   226. RY*(   2) O  28                  0.00218     1.16257   
   227. RY*(   3) O  28                  0.00071     2.01278   
   228. RY*(   4) O  28                  0.00034     1.81717   
   229. RY*(   5) O  28                  0.00021     2.03887   
   230. RY*(   6) O  28                  0.00006     2.25535   
   231. RY*(   7) O  28                  0.00004     2.80642   
   232. RY*(   8) O  28                  0.00001     3.25590   
   233. RY*(   9) O  28                  0.00001     2.05263   
   234. RY*(  10) O  28                  0.00001     2.07696   
   235. RY*(   1) C  29                  0.00419     1.04569   
   236. RY*(   2) C  29                  0.00187     0.83254   
   237. RY*(   3) C  29                  0.00113     0.79480   
   238. RY*(   4) C  29                  0.00054     1.61976   
   239. RY*(   5) C  29                  0.00026     1.87268   
   240. RY*(   6) C  29                  0.00016     1.97546   
   241. RY*(   7) C  29                  0.00006     2.16706   
   242. RY*(   8) C  29                  0.00004     2.18225   
   243. RY*(   9) C  29                  0.00001     2.24094   
   244. RY*(  10) C  29                  0.00001     3.76496   
   245. RY*(   1) H  30                  0.00128     0.59278   
   246. RY*(   1) H  31                  0.00161     0.62599   
   247. RY*(   1) H  32                  0.00205     0.62594   
   248. RY*(   1) H  33                  0.00118     0.66482   
   249. RY*(   1) H  34                  0.00129     0.68946   
   250. RY*(   1) H  35                  0.00134     0.64753   
   251. RY*(   1) H  36                  0.00145     0.63850   
   252. BD*(   1) C   1 - C   2          0.02257     0.96825   
   253. BD*(   2) C   1 - C   2          0.05069     0.14655   
   254. BD*(   3) C   1 - C   2          0.21452     0.14049  258(v),66(g),77(g),67(g)
                                                    266(v)
   255. BD*(   1) C   1 - N   7          0.02270     0.55265   
   256. BD*(   1) C   2 - C   3          0.01992     0.58502   
   257. BD*(   1) C   3 - C   4          0.01965     0.64716   
   258. BD*(   2) C   3 - C   4          0.20646     0.05847  254(v),264(v),87(g),97(g)
   259. BD*(   1) C   3 - H   8          0.01757     0.47751   
   260. BD*(   1) C   4 - C   5          0.02085     0.57826   
   261. BD*(   1) C   4 - H   9          0.01778     0.48415   
   262. BD*(   1) C   5 - C   6          0.02423     1.01319   
   263. BD*(   2) C   5 - C   6          0.04241     0.16024   
   264. BD*(   3) C   5 - C   6          0.10608     0.15689  258(v),270(v),108(g),117(g)
                                                    269(v)
   265. BD*(   1) C   6 - C  10          0.02394     0.48631   
   266. BD*(   1) N   7 - C  11          0.02941     0.32096   
   267. BD*(   1) N   7 - C  12          0.04190     0.32115   
   268. BD*(   1) C  10 - C  13          0.01876     0.37243   
   269. BD*(   1) C  10 - H  14          0.02402     0.45127   
   270. BD*(   1) C  10 - C  15          0.01923     0.37465   
   271. BD*(   1) C  11 - C  16          0.03242     0.36153   
   272. BD*(   1) C  11 - H  17          0.01991     0.45328   
   273. BD*(   1) C  11 - H  18          0.01546     0.44259   
   274. BD*(   1) C  12 - C  19          0.02734     0.36508   
   275. BD*(   1) C  12 - C  20          0.02811     0.36583   
   276. BD*(   1) C  12 - H  21          0.01652     0.47763   
   277. BD*(   1) C  13 - H  22          0.00539     0.45800   
   278. BD*(   1) C  13 - H  23          0.00687     0.45173   
   279. BD*(   1) C  13 - H  24          0.00832     0.45702   
   280. BD*(   1) C  15 - H  25          0.00497     0.46423   
   281. BD*(   1) C  15 - H  26          0.00691     0.45405   
   282. BD*(   1) C  15 - H  27          0.00772     0.45538   
   283. BD*(   1) C  16 - O  28          0.03219     0.29443   
   284. BD*(   1) C  16 - C  29          0.02992     0.36802   
   285. BD*(   1) C  16 - H  30          0.01781     0.47320   
   286. BD*(   1) C  19 - O  28          0.01786     0.28878   
   287. BD*(   1) C  19 - H  31          0.01979     0.44759   
   288. BD*(   1) C  19 - H  32          0.02276     0.45273   
   289. BD*(   1) C  20 - C  29          0.01295     0.36174   
   290. BD*(   1) C  20 - H  33          0.01108     0.45041   
   291. BD*(   1) C  20 - H  34          0.01061     0.46223   
   292. BD*(   1) C  29 - H  35          0.01141     0.44964   
   293. BD*(   1) C  29 - H  36          0.00937     0.46079   
       -------------------------------
              Total Lewis  122.49427  ( 98.7857%)
        Valence non-Lewis    1.31838  (  1.0632%)
        Rydberg non-Lewis    0.18735  (  0.1511%)
       -------------------------------
            Total unit  1  124.00000  (100.0000%)
           Charge unit  1    0.00000
 Leave Link  607 at Thu Oct 17 10:25:11 2024, MaxMem=  6710886400 cpu:              47.7 elap:               3.2
 (Enter /home/zengyun1/App/g16/l9999.exe)
 Unable to Open any file for archive entry.
 1\1\GINC-SHENG-P340-21-194\SP\RB3LYP\6-31G(d)\C15H19N1O1\ZENGYUN1\17-O
 ct-2024\0\\#p b3lyp/6-31g(d) em=gd3 pop=NBO\\Title Card Required\\0,1\
 C,0,-1.075347,-2.126391,-0.001024\C,0,-0.04815,-1.468735,-0.00171\C,0,
 1.11754,-0.680582,0.006873\C,0,1.126959,0.680582,-0.004631\C,0,-0.0495
 12,1.468836,-0.003133\C,0,-1.07149,2.126289,0.003625\N,0,-2.235179,-2.
 786008,-0.029637\H,0,2.072268,-1.204463,0.018781\H,0,2.085399,1.195164
 ,-0.013883\C,0,-2.331724,2.874339,0.037702\C,0,-2.346174,-4.099746,0.6
 51142\C,0,-3.481441,-1.987844,0.081272\C,0,-3.529451,1.934568,-0.21649
 2\H,0,-2.313628,3.621811,-0.770276\C,0,-2.495565,3.629719,1.373358\C,0
 ,-3.696799,-4.120221,1.379838\H,0,-2.305496,-4.911773,-0.084114\H,0,-1
 .521478,-4.226075,1.362345\C,0,-4.626342,-2.874175,-0.414804\C,0,-3.71
 3167,-1.616369,1.554982\H,0,-3.376727,-1.105676,-0.55405\H,0,-3.422462
 ,1.4108,-1.171998\H,0,-4.466198,2.503975,-0.235041\H,0,-3.597152,1.184
 718,0.579759\H,0,-1.657577,4.312373,1.546073\H,0,-3.424481,4.21226,1.3
 68585\H,0,-2.534579,2.922218,2.209189\O,0,-4.757941,-4.036183,0.420962
 \C,0,-3.799848,-2.943586,2.364717\H,0,-3.830297,-5.080308,1.886194\H,0
 ,-5.571278,-2.315957,-0.386179\H,0,-4.439901,-3.192885,-1.448752\H,0,-
 4.633538,-1.028548,1.648903\H,0,-2.884402,-0.987149,1.896465\H,0,-2.99
 8402,-3.011104,3.110525\H,0,-4.751997,-3.02032,2.897135\\Version=ES64L
 -G16RevC.01\State=1-A\HF=-712.8886265\RMSD=4.934e-09\Dipole=-0.5510439
 ,-0.0938011,0.467161\Quadrupole=-0.9528666,1.6781499,-0.7252833,-5.608
 1955,0.965624,-2.6833392\PG=C01 [X(C15H19N1O1)]\\@
 The archive entry for this job was punched.


 There was a great rattling of the words for the fewness of ideas.
                   -- Charles Baxter in Gryphon
 Job cpu time:       0 days  0 hours  8 minutes 53.1 seconds.
 Elapsed time:       0 days  0 hours  0 minutes 35.5 seconds.
 File lengths (MBytes):  RWF=     51 Int=      0 D2E=      0 Chk=      6 Scr=      1
 Normal termination of Gaussian 16 at Thu Oct 17 10:25:13 2024.
